 Entering Gaussian System, Link 0=g16
 Initial command:
 /usr/local/gaussian16c01/g16/l1.exe "/scr/dhuang/Gau-144125.inp" -scrdir="/scr/dhuang/"
 Entering Link 1 = /usr/local/gaussian16c01/g16/l1.exe PID=    144126.
  
 Copyright (c) 1988-2019, Gaussian, Inc.  All Rights Reserved.
  
 This is part of the Gaussian(R) 16 program.  It is based on
 the Gaussian(R) 09 system (copyright 2009, Gaussian, Inc.),
 the Gaussian(R) 03 system (copyright 2003, Gaussian, Inc.),
 the Gaussian(R) 98 system (copyright 1998, Gaussian, Inc.),
 the Gaussian(R) 94 system (copyright 1995, Gaussian, Inc.),
 the Gaussian 92(TM) system (copyright 1992, Gaussian, Inc.),
 the Gaussian 90(TM) system (copyright 1990, Gaussian, Inc.),
 the Gaussian 88(TM) system (copyright 1988, Gaussian, Inc.),
 the Gaussian 86(TM) system (copyright 1986, Carnegie Mellon
 University), and the Gaussian 82(TM) system (copyright 1983,
 Carnegie Mellon University). Gaussian is a federally registered
 trademark of Gaussian, Inc.
  
 This software contains proprietary and confidential information,
 including trade secrets, belonging to Gaussian, Inc.
  
 This software is provided under written license and may be
 used, copied, transmitted, or stored only in accord with that
 written license.
  
 The following legend is applicable only to US Government
 contracts under FAR:
  
                    RESTRICTED RIGHTS LEGEND
  
 Use, reproduction and disclosure by the US Government is
 subject to restrictions as set forth in subparagraphs (a)
 and (c) of the Commercial Computer Software - Restricted
 Rights clause in FAR 52.227-19.
  
 Gaussian, Inc.
 340 Quinnipiac St., Bldg. 40, Wallingford CT 06492
  
  
 ---------------------------------------------------------------
 Warning -- This program may not be used in any manner that
 competes with the business of Gaussian, Inc. or will provide
 assistance to any competitor of Gaussian, Inc.  The licensee
 of this program is prohibited from giving any competitor of
 Gaussian, Inc. access to this program.  By using this program,
 the user acknowledges that Gaussian, Inc. is engaged in the
 business of creating and licensing software in the field of
 computational chemistry and represents and warrants to the
 licensee that it is not a competitor of Gaussian, Inc. and that
 it will not use this program in any manner prohibited above.
 ---------------------------------------------------------------
  

 Cite this work as:
 Gaussian 16, Revision C.01,
 M. J. Frisch, G. W. Trucks, H. B. Schlegel, G. E. Scuseria, 
 M. A. Robb, J. R. Cheeseman, G. Scalmani, V. Barone, 
 G. A. Petersson, H. Nakatsuji, X. Li, M. Caricato, A. V. Marenich, 
 J. Bloino, B. G. Janesko, R. Gomperts, B. Mennucci, H. P. Hratchian, 
 J. V. Ortiz, A. F. Izmaylov, J. L. Sonnenberg, D. Williams-Young, 
 F. Ding, F. Lipparini, F. Egidi, J. Goings, B. Peng, A. Petrone, 
 T. Henderson, D. Ranasinghe, V. G. Zakrzewski, J. Gao, N. Rega, 
 G. Zheng, W. Liang, M. Hada, M. Ehara, K. Toyota, R. Fukuda, 
 J. Hasegawa, M. Ishida, T. Nakajima, Y. Honda, O. Kitao, H. Nakai, 
 T. Vreven, K. Throssell, J. A. Montgomery, Jr., J. E. Peralta, 
 F. Ogliaro, M. J. Bearpark, J. J. Heyd, E. N. Brothers, K. N. Kudin, 
 V. N. Staroverov, T. A. Keith, R. Kobayashi, J. Normand, 
 K. Raghavachari, A. P. Rendell, J. C. Burant, S. S. Iyengar, 
 J. Tomasi, M. Cossi, J. M. Millam, M. Klene, C. Adamo, R. Cammi, 
 J. W. Ochterski, R. L. Martin, K. Morokuma, O. Farkas, 
 J. B. Foresman, and D. J. Fox, Gaussian, Inc., Wallingford CT, 2019.
 
 ******************************************
 Gaussian 16:  ES64L-G16RevC.01  3-Jul-2019
                 6-Sep-2022 
 ******************************************
 %nprocshared=40
 Will use up to   40 processors via shared memory.
 %mem=10000MW
 %chk=3-CF3.chk
 ------------------------------------
 # opt freq M062x/aug-cc-pvtz pop=nbo
 ------------------------------------
 1/18=20,19=15,26=3,38=1/1,3;
 2/9=110,12=2,17=6,18=5,40=1/2;
 3/5=16,6=1,7=10,11=2,25=1,30=1,71=1,74=-55/1,2,3;
 4//1;
 5/5=2,38=5/2;
 6/7=2,8=2,9=2,10=2,28=1,40=1/1,7;
 7//1,2,3,16;
 1/18=20,19=15,26=3/3(2);
 2/9=110/2;
 99//99;
 2/9=110/2;
 3/5=16,6=1,7=10,11=2,25=1,30=1,71=1,74=-55/1,2,3;
 4/5=5,16=3,69=1/1;
 5/5=2,38=5/2;
 7//1,2,3,16;
 1/18=20,19=15,26=3/3(-5);
 2/9=110/2;
 6/7=2,8=2,9=2,10=2,19=2,28=1,40=1/1,7;
 99/9=1/99;
 ------------------
 3-CF3_benzoic-acid
 ------------------
 Symbolic Z-matrix:
 Charge =  0 Multiplicity = 1
 C                    -1.8229   -0.3291   -0.5849 
 C                    -1.5038   -1.1265   -1.6156 
 C                    -0.2208   -1.4162   -1.8767 
 C                     0.7635   -0.9133   -1.1116 
 C                     0.4248   -0.115    -0.0817 
 C                    -0.8573    0.1881    0.1975 
 C                    -1.1553    1.0021    1.2522 
 O                    -2.2911    1.3076    1.5487 
 O                    -0.197     1.5329    2.0519 
 F                     2.892    -0.101    -1.5984 
 C                     2.2193   -1.2209   -1.3799 
 F                     2.4154   -2.0158   -2.4195 
 F                     2.768    -1.8003   -0.3226 
 H                    -2.892    -0.1218   -0.4127 
 H                    -2.3006   -1.5469   -2.2527 
 H                     0.0094   -2.0741   -2.7303 
 H                     1.2453    0.288     0.5346 
 H                    -0.6318    2.0741    2.7303 
 

 GradGradGradGradGradGradGradGradGradGradGradGradGradGradGradGradGradGrad
 Berny optimization.
 Initialization pass.
                           ----------------------------
                           !    Initial Parameters    !
                           ! (Angstroms and Degrees)  !
 --------------------------                            --------------------------
 ! Name  Definition              Value          Derivative Info.                !
 --------------------------------------------------------------------------------
 ! R1    R(1,2)                  1.3416         estimate D2E/DX2                !
 ! R2    R(1,6)                  1.3461         estimate D2E/DX2                !
 ! R3    R(1,14)                 1.1025         estimate D2E/DX2                !
 ! R4    R(2,3)                  1.341          estimate D2E/DX2                !
 ! R5    R(2,15)                 1.1034         estimate D2E/DX2                !
 ! R6    R(3,4)                  1.3443         estimate D2E/DX2                !
 ! R7    R(3,16)                 1.102          estimate D2E/DX2                !
 ! R8    R(4,5)                  1.3464         estimate D2E/DX2                !
 ! R9    R(4,11)                 1.5119         estimate D2E/DX2                !
 ! R10   R(5,6)                  1.3467         estimate D2E/DX2                !
 ! R11   R(5,17)                 1.1025         estimate D2E/DX2                !
 ! R12   R(6,7)                  1.3652         estimate D2E/DX2                !
 ! R13   R(7,8)                  1.213          estimate D2E/DX2                !
 ! R14   R(7,9)                  1.3563         estimate D2E/DX2                !
 ! R15   R(9,18)                 0.9707         estimate D2E/DX2                !
 ! R16   R(10,11)                1.3246         estimate D2E/DX2                !
 ! R17   R(11,12)                1.3233         estimate D2E/DX2                !
 ! R18   R(11,13)                1.3246         estimate D2E/DX2                !
 ! A1    A(2,1,6)              120.2827         estimate D2E/DX2                !
 ! A2    A(2,1,14)             117.5397         estimate D2E/DX2                !
 ! A3    A(6,1,14)             122.1776         estimate D2E/DX2                !
 ! A4    A(1,2,3)              120.3676         estimate D2E/DX2                !
 ! A5    A(1,2,15)             119.8853         estimate D2E/DX2                !
 ! A6    A(3,2,15)             119.7471         estimate D2E/DX2                !
 ! A7    A(2,3,4)              120.5916         estimate D2E/DX2                !
 ! A8    A(2,3,16)             118.6625         estimate D2E/DX2                !
 ! A9    A(4,3,16)             120.7458         estimate D2E/DX2                !
 ! A10   A(3,4,5)              118.2282         estimate D2E/DX2                !
 ! A11   A(3,4,11)             121.8644         estimate D2E/DX2                !
 ! A12   A(5,4,11)             119.9074         estimate D2E/DX2                !
 ! A13   A(4,5,6)              122.1095         estimate D2E/DX2                !
 ! A14   A(4,5,17)             117.2023         estimate D2E/DX2                !
 ! A15   A(6,5,17)             120.6882         estimate D2E/DX2                !
 ! A16   A(1,6,5)              118.4204         estimate D2E/DX2                !
 ! A17   A(1,6,7)              121.4356         estimate D2E/DX2                !
 ! A18   A(5,6,7)              120.144          estimate D2E/DX2                !
 ! A19   A(6,7,8)              122.9163         estimate D2E/DX2                !
 ! A20   A(6,7,9)              122.3184         estimate D2E/DX2                !
 ! A21   A(8,7,9)              114.7653         estimate D2E/DX2                !
 ! A22   A(7,9,18)             108.288          estimate D2E/DX2                !
 ! A23   A(4,11,10)            110.2594         estimate D2E/DX2                !
 ! A24   A(4,11,12)            113.848          estimate D2E/DX2                !
 ! A25   A(4,11,13)            110.2547         estimate D2E/DX2                !
 ! A26   A(10,11,12)           107.6396         estimate D2E/DX2                !
 ! A27   A(10,11,13)           106.9248         estimate D2E/DX2                !
 ! A28   A(12,11,13)           107.6339         estimate D2E/DX2                !
 ! D1    D(6,1,2,3)              0.0004         estimate D2E/DX2                !
 ! D2    D(6,1,2,15)           179.9992         estimate D2E/DX2                !
 ! D3    D(14,1,2,3)          -179.9988         estimate D2E/DX2                !
 ! D4    D(14,1,2,15)            0.0            estimate D2E/DX2                !
 ! D5    D(2,1,6,5)              0.0046         estimate D2E/DX2                !
 ! D6    D(2,1,6,7)            179.9955         estimate D2E/DX2                !
 ! D7    D(14,1,6,5)          -179.9963         estimate D2E/DX2                !
 ! D8    D(14,1,6,7)            -0.0053         estimate D2E/DX2                !
 ! D9    D(1,2,3,4)             -0.0027         estimate D2E/DX2                !
 ! D10   D(1,2,3,16)          -179.9999         estimate D2E/DX2                !
 ! D11   D(15,2,3,4)           179.9985         estimate D2E/DX2                !
 ! D12   D(15,2,3,16)            0.0013         estimate D2E/DX2                !
 ! D13   D(2,3,4,5)             -0.0001         estimate D2E/DX2                !
 ! D14   D(2,3,4,11)          -179.996          estimate D2E/DX2                !
 ! D15   D(16,3,4,5)           179.9971         estimate D2E/DX2                !
 ! D16   D(16,3,4,11)            0.0012         estimate D2E/DX2                !
 ! D17   D(3,4,5,6)              0.0053         estimate D2E/DX2                !
 ! D18   D(3,4,5,17)           179.9963         estimate D2E/DX2                !
 ! D19   D(11,4,5,6)          -179.9987         estimate D2E/DX2                !
 ! D20   D(11,4,5,17)           -0.0077         estimate D2E/DX2                !
 ! D21   D(3,4,11,10)          121.0935         estimate D2E/DX2                !
 ! D22   D(3,4,11,12)            0.0071         estimate D2E/DX2                !
 ! D23   D(3,4,11,13)         -121.0684         estimate D2E/DX2                !
 ! D24   D(5,4,11,10)          -58.9023         estimate D2E/DX2                !
 ! D25   D(5,4,11,12)         -179.9888         estimate D2E/DX2                !
 ! D26   D(5,4,11,13)           58.9357         estimate D2E/DX2                !
 ! D27   D(4,5,6,1)             -0.0075         estimate D2E/DX2                !
 ! D28   D(4,5,6,7)           -179.9986         estimate D2E/DX2                !
 ! D29   D(17,5,6,1)          -179.9982         estimate D2E/DX2                !
 ! D30   D(17,5,6,7)             0.0107         estimate D2E/DX2                !
 ! D31   D(1,6,7,8)              0.0066         estimate D2E/DX2                !
 ! D32   D(1,6,7,9)           -179.9971         estimate D2E/DX2                !
 ! D33   D(5,6,7,8)            179.9974         estimate D2E/DX2                !
 ! D34   D(5,6,7,9)             -0.0063         estimate D2E/DX2                !
 ! D35   D(6,7,9,18)          -179.9943         estimate D2E/DX2                !
 ! D36   D(8,7,9,18)             0.0022         estimate D2E/DX2                !
 --------------------------------------------------------------------------------
 Trust Radius=3.00D-01 FncErr=1.00D-07 GrdErr=1.00D-06 EigMax=2.50D+02 EigMin=1.00D-04
 Number of steps in this run=     92 maximum allowed number of steps=    108.
 GradGradGradGradGradGradGradGradGradGradGradGradGradGradGradGradGradGrad

                          Input orientation:                          
 ---------------------------------------------------------------------
 Center     Atomic      Atomic             Coordinates (Angstroms)
 Number     Number       Type             X           Y           Z
 ---------------------------------------------------------------------
      1          6           0       -1.822900   -0.329100   -0.584900
      2          6           0       -1.503800   -1.126500   -1.615600
      3          6           0       -0.220800   -1.416200   -1.876700
      4          6           0        0.763500   -0.913300   -1.111600
      5          6           0        0.424800   -0.115000   -0.081700
      6          6           0       -0.857300    0.188100    0.197500
      7          6           0       -1.155300    1.002100    1.252200
      8          8           0       -2.291100    1.307600    1.548700
      9          8           0       -0.197000    1.532900    2.051900
     10          9           0        2.892000   -0.101000   -1.598400
     11          6           0        2.219300   -1.220900   -1.379900
     12          9           0        2.415400   -2.015800   -2.419500
     13          9           0        2.768000   -1.800300   -0.322600
     14          1           0       -2.892000   -0.121800   -0.412700
     15          1           0       -2.300600   -1.546900   -2.252700
     16          1           0        0.009400   -2.074100   -2.730300
     17          1           0        1.245300    0.288000    0.534600
     18          1           0       -0.631800    2.074100    2.730300
 ---------------------------------------------------------------------
                    Distance matrix (angstroms):
                    1          2          3          4          5
     1  C    0.000000
     2  C    1.341646   0.000000
     3  C    2.327500   1.340965   0.000000
     4  C    2.703362   2.332406   1.344296   0.000000
     5  C    2.313267   2.663734   2.309101   1.346363   0.000000
     6  C    1.346116   2.330980   2.698373   2.356654   1.346701
     7  C    2.364893   3.588407   4.063432   3.596957   2.350302
     8  O    2.729514   4.069088   4.841342   4.619543   3.472479
     9  O    3.614320   4.714943   4.912398   4.112686   2.766669
    10  F    4.827991   4.513868   3.390682   2.329660   2.896144
    11  C    4.215058   3.731748   2.497807   1.511938   2.475595
    12  F    4.916696   4.098443   2.757481   2.378000   3.611210
    13  F    4.828001   4.513771   3.390529   2.329659   2.896352
    14  H    1.102543   2.093679   3.309694   3.804946   3.333282
    15  H    2.119620   1.103414   2.117552   3.330506   3.767145
    16  H    3.317392   2.104822   1.102024   2.129862   3.320499
    17  H    3.323845   3.765863   3.296682   2.094093   1.102477
    18  H    4.264345   5.467273   5.794443   5.062768   3.716975
                    6          7          8          9         10
     6  C    0.000000
     7  C    1.365208   0.000000
     8  O    2.266011   1.212965   0.000000
     9  O    2.383964   1.356321   2.165462   0.000000
    10  F    4.167264   5.071823   6.225184   5.053340   0.000000
    11  C    3.733489   4.822614   5.942535   5.019878   1.324554
    12  F    4.734599   5.944661   6.995909   6.277844   2.137244
    13  F    4.167378   5.072053   6.225375   5.053682   2.128535
    14  H    2.146715   2.655404   2.500271   4.009403   5.904318
    15  H    3.331189   4.482570   4.753830   5.695602   5.429717
    16  H    3.800096   5.165253   5.919294   5.993537   3.672016
    17  H    2.131793   2.605335   3.817605   2.435612   2.722615
    18  H    3.165900   1.899478   2.176460   0.970657   5.990482
                   11         12         13         14         15
    11  C    0.000000
    12  F    1.323287   0.000000
    13  F    1.324636   2.137231   0.000000
    14  H    5.316849   5.981887   5.904327   0.000000
    15  H    4.614927   4.742188   5.429568   2.401305   0.000000
    16  H    2.726754   2.426691   3.671765   4.195339   2.417052
    17  H    2.625027   3.924708   2.722940   4.264102   4.869220
    18  H    5.989953   7.247976   5.990811   4.450722   6.381757
                   16         17         18
    16  H    0.000000
    17  H    4.215037   0.000000
    18  H    6.887442   3.396286   0.000000
 Stoichiometry    C8H5F3O2
 Framework group  C1[X(C8H5F3O2)]
 Deg. of freedom    48
 Full point group                 C1      NOp   1
 Largest Abelian subgroup         C1      NOp   1
 Largest concise Abelian subgroup C1      NOp   1
                         Standard orientation:                         
 ---------------------------------------------------------------------
 Center     Atomic      Atomic             Coordinates (Angstroms)
 Number     Number       Type             X           Y           Z
 ---------------------------------------------------------------------
      1          6           0        1.531404    1.572881    0.000004
      2          6           0        0.396332    2.288160   -0.000023
      3          6           0       -0.794038    1.670740    0.000006
      4          6           0       -0.868535    0.328510    0.000009
      5          6           0        0.280594   -0.373058   -0.000022
      6          6           0        1.485955    0.227532    0.000053
      7          6           0        2.626082   -0.523402   -0.000010
      8          8           0        3.736636   -0.035597    0.000006
      9          8           0        2.601178   -1.879495   -0.000020
     10          9           0       -2.289138   -1.180404   -1.064127
     11          6           0       -2.194882   -0.397272   -0.000048
     12          9           0       -3.245218    0.407641   -0.000248
     13          9           0       -2.289364   -1.180002    1.064408
     14          1           0        2.483890    2.128192   -0.000001
     15          1           0        0.441236    3.390660   -0.000049
     16          1           0       -1.708489    2.285750   -0.000018
     17          1           0        0.199799   -1.472570    0.000044
     18          1           0        3.517060   -2.200952    0.000024
 ---------------------------------------------------------------------
 Rotational constants (GHZ):           1.5862416           0.5005870           0.4068750
 Standard basis: Aug-CC-pVTZ (5D, 7F)
 There are   840 symmetry adapted cartesian basis functions of A   symmetry.
 There are   713 symmetry adapted basis functions of A   symmetry.
   713 basis functions,  1071 primitive gaussians,   840 cartesian basis functions
    48 alpha electrons       48 beta electrons
       nuclear repulsion energy       810.2646747981 Hartrees.
 NAtoms=   18 NActive=   18 NUniq=   18 SFac= 1.00D+00 NAtFMM=   60 NAOKFM=F Big=F
 Integral buffers will be    131072 words long.
 Raffenetti 2 integral format.
 Two-electron integral symmetry is turned on.
 One-electron integrals computed using PRISM.
 NBasis=   713 RedAO= T EigKep=  1.01D-06  NBF=   713
 NBsUse=   711 1.00D-06 EigRej=  6.20D-07 NBFU=   711
 ExpMin= 2.53D-02 ExpMax= 1.95D+04 ExpMxC= 6.65D+02 IAcc=3 IRadAn=         5 AccDes= 0.00D+00
 Harris functional with IExCor= 1009 and IRadAn=       5 diagonalized for initial guess.
 HarFok:  IExCor= 1009 AccDes= 0.00D+00 IRadAn=         5 IDoV= 1 UseB2=F ITyADJ=14
 ICtDFT=  3500011 ScaDFX=  1.000000  1.000000  1.000000  1.000000
 FoFCou: FMM=F IPFlag=           0 FMFlag=      100000 FMFlg1=           0
         NFxFlg=           0 DoJE=T BraDBF=F KetDBF=T FulRan=T
         wScrn=  0.000000 ICntrl=       500 IOpCl=  0 I1Cent=   200000004 NGrid=           0
         NMat0=    1 NMatS0=      1 NMatT0=    0 NMatD0=    1 NMtDS0=    0 NMtDT0=    0
 Petite list used in FoFCou.
 Requested convergence on RMS density matrix=1.00D-08 within 128 cycles.
 Requested convergence on MAX density matrix=1.00D-06.
 Requested convergence on             energy=1.00D-06.
 No special actions if energy rises.
 SCF Done:  E(RM062X) =  -757.875757597     A.U. after   13 cycles
            NFock= 13  Conv=0.98D-08     -V/T= 2.0034

 **********************************************************************

            Population analysis using the SCF Density.

 **********************************************************************

 Orbital symmetries:
       Occupied  (A) (A) (A) (A) (A) (A) (A) (A) (A) (A) (A) (A)
                 (A) (A) (A) (A) (A) (A) (A) (A) (A) (A) (A) (A)
                 (A) (A) (A) (A) (A) (A) (A) (A) (A) (A) (A) (A)
                 (A) (A) (A) (A) (A) (A) (A) (A) (A) (A) (A) (A)
       Virtual   (A) (A) (A) (A) (A) (A) (A) (A) (A) (A) (A) (A)
                 (A) (A) (A) (A) (A) (A) (A) (A) (A) (A) (A) (A)
                 (A) (A) (A) (A) (A) (A) (A) (A) (A) (A) (A) (A)
                 (A) (A) (A) (A) (A) (A) (A) (A) (A) (A) (A) (A)
                 (A) (A) (A) (A) (A) (A) (A) (A) (A) (A) (A) (A)
                 (A) (A) (A) (A) (A) (A) (A) (A) (A) (A) (A) (A)
                 (A) (A) (A) (A) (A) (A) (A) (A) (A) (A) (A) (A)
                 (A) (A) (A) (A) (A) (A) (A) (A) (A) (A) (A) (A)
                 (A) (A) (A) (A) (A) (A) (A) (A) (A) (A) (A) (A)
                 (A) (A) (A) (A) (A) (A) (A) (A) (A) (A) (A) (A)
                 (A) (A) (A) (A) (A) (A) (A) (A) (A) (A) (A) (A)
                 (A) (A) (A) (A) (A) (A) (A) (A) (A) (A) (A) (A)
                 (A) (A) (A) (A) (A) (A) (A) (A) (A) (A) (A) (A)
                 (A) (A) (A) (A) (A) (A) (A) (A) (A) (A) (A) (A)
                 (A) (A) (A) (A) (A) (A) (A) (A) (A) (A) (A) (A)
                 (A) (A) (A) (A) (A) (A) (A) (A) (A) (A) (A) (A)
                 (A) (A) (A) (A) (A) (A) (A) (A) (A) (A) (A) (A)
                 (A) (A) (A) (A) (A) (A) (A) (A) (A) (A) (A) (A)
                 (A) (A) (A) (A) (A) (A) (A) (A) (A) (A) (A) (A)
                 (A) (A) (A) (A) (A) (A) (A) (A) (A) (A) (A) (A)
                 (A) (A) (A) (A) (A) (A) (A) (A) (A) (A) (A) (A)
                 (A) (A) (A) (A) (A) (A) (A) (A) (A) (A) (A) (A)
                 (A) (A) (A) (A) (A) (A) (A) (A) (A) (A) (A) (A)
                 (A) (A) (A) (A) (A) (A) (A) (A) (A) (A) (A) (A)
                 (A) (A) (A) (A) (A) (A) (A) (A) (A) (A) (A) (A)
                 (A) (A) (A) (A) (A) (A) (A) (A) (A) (A) (A) (A)
                 (A) (A) (A) (A) (A) (A) (A) (A) (A) (A) (A) (A)
                 (A) (A) (A) (A) (A) (A) (A) (A) (A) (A) (A) (A)
                 (A) (A) (A) (A) (A) (A) (A) (A) (A) (A) (A) (A)
                 (A) (A) (A) (A) (A) (A) (A) (A) (A) (A) (A) (A)
                 (A) (A) (A) (A) (A) (A) (A) (A) (A) (A) (A) (A)
                 (A) (A) (A) (A) (A) (A) (A) (A) (A) (A) (A) (A)
                 (A) (A) (A) (A) (A) (A) (A) (A) (A) (A) (A) (A)
                 (A) (A) (A) (A) (A) (A) (A) (A) (A) (A) (A) (A)
                 (A) (A) (A) (A) (A) (A) (A) (A) (A) (A) (A) (A)
                 (A) (A) (A) (A) (A) (A) (A) (A) (A) (A) (A) (A)
                 (A) (A) (A) (A) (A) (A) (A) (A) (A) (A) (A) (A)
                 (A) (A) (A) (A) (A) (A) (A) (A) (A) (A) (A) (A)
                 (A) (A) (A) (A) (A) (A) (A) (A) (A) (A) (A) (A)
                 (A) (A) (A) (A) (A) (A) (A) (A) (A) (A) (A) (A)
                 (A) (A) (A) (A) (A) (A) (A) (A) (A) (A) (A) (A)
                 (A) (A) (A) (A) (A) (A) (A) (A) (A) (A) (A) (A)
                 (A) (A) (A) (A) (A) (A) (A) (A) (A) (A) (A) (A)
                 (A) (A) (A) (A) (A) (A) (A) (A) (A) (A) (A) (A)
                 (A) (A) (A) (A) (A) (A) (A) (A) (A) (A) (A) (A)
                 (A) (A) (A) (A) (A) (A) (A) (A) (A) (A) (A) (A)
                 (A) (A) (A) (A) (A) (A) (A) (A) (A) (A) (A) (A)
                 (A) (A) (A) (A) (A) (A) (A) (A) (A) (A) (A) (A)
                 (A) (A) (A) (A) (A) (A) (A) (A) (A) (A) (A) (A)
                 (A) (A) (A) (A) (A) (A) (A) (A) (A) (A) (A) (A)
                 (A) (A) (A) (A) (A) (A) (A) (A) (A) (A) (A) (A)
                 (A) (A) (A) (A) (A) (A) (A) (A) (A) (A) (A) (A)
                 (A) (A) (A) (A) (A) (A) (A) (A) (A) (A) (A) (A)
                 (A) (A) (A) (A) (A) (A) (A) (A) (A) (A) (A) (A)
                 (A) (A) (A) (A) (A) (A) (A) (A) (A) (A) (A) (A)
                 (A) (A) (A)
 The electronic state is 1-A.
 Alpha  occ. eigenvalues --  -25.29422 -25.28771 -25.28767 -19.67610 -19.61742
 Alpha  occ. eigenvalues --  -10.80824 -10.68266 -10.58097 -10.57718 -10.57556
 Alpha  occ. eigenvalues --  -10.57176 -10.57031 -10.56481  -1.48985  -1.39465
 Alpha  occ. eigenvalues --   -1.38994  -1.24864  -1.13948  -1.03785  -0.93476
 Alpha  occ. eigenvalues --   -0.91065  -0.82943  -0.79254  -0.74974  -0.72703
 Alpha  occ. eigenvalues --   -0.70939  -0.70303  -0.66784  -0.62551  -0.60519
 Alpha  occ. eigenvalues --   -0.59069  -0.58542  -0.57460  -0.56732  -0.55987
 Alpha  occ. eigenvalues --   -0.54733  -0.54279  -0.52825  -0.52618  -0.49957
 Alpha  occ. eigenvalues --   -0.49268  -0.48895  -0.44818  -0.43404  -0.40778
 Alpha  occ. eigenvalues --   -0.36694  -0.35500  -0.35457
 Alpha virt. eigenvalues --   -0.04765  -0.01110  -0.01056  -0.00160   0.00819
 Alpha virt. eigenvalues --    0.01765   0.02329   0.02637   0.03256   0.04342
 Alpha virt. eigenvalues --    0.05009   0.05357   0.05853   0.06336   0.06854
 Alpha virt. eigenvalues --    0.07270   0.07779   0.08313   0.08756   0.08829
 Alpha virt. eigenvalues --    0.09096   0.09370   0.09696   0.10092   0.10222
 Alpha virt. eigenvalues --    0.10722   0.11957   0.11971   0.12302   0.13421
 Alpha virt. eigenvalues --    0.13549   0.14919   0.14992   0.15273   0.15762
 Alpha virt. eigenvalues --    0.17180   0.17908   0.17943   0.18254   0.18590
 Alpha virt. eigenvalues --    0.19104   0.19194   0.19838   0.20292   0.20389
 Alpha virt. eigenvalues --    0.20815   0.21135   0.21905   0.22233   0.22701
 Alpha virt. eigenvalues --    0.22867   0.23107   0.23480   0.23881   0.24105
 Alpha virt. eigenvalues --    0.24761   0.25296   0.25542   0.26016   0.26591
 Alpha virt. eigenvalues --    0.27218   0.27374   0.27895   0.27917   0.28935
 Alpha virt. eigenvalues --    0.29453   0.29499   0.30298   0.30887   0.32039
 Alpha virt. eigenvalues --    0.32225   0.32312   0.32839   0.33492   0.33968
 Alpha virt. eigenvalues --    0.34176   0.34425   0.34500   0.34679   0.35629
 Alpha virt. eigenvalues --    0.35654   0.36367   0.36575   0.37434   0.37986
 Alpha virt. eigenvalues --    0.38676   0.38712   0.39124   0.39302   0.39898
 Alpha virt. eigenvalues --    0.40513   0.40732   0.41031   0.41295   0.41926
 Alpha virt. eigenvalues --    0.42193   0.43301   0.44249   0.44885   0.45070
 Alpha virt. eigenvalues --    0.45239   0.45619   0.47153   0.47167   0.47696
 Alpha virt. eigenvalues --    0.48895   0.49758   0.50283   0.51279   0.51702
 Alpha virt. eigenvalues --    0.52100   0.53058   0.53605   0.54386   0.54747
 Alpha virt. eigenvalues --    0.55277   0.55506   0.56125   0.57129   0.57613
 Alpha virt. eigenvalues --    0.58318   0.59159   0.59975   0.60722   0.61259
 Alpha virt. eigenvalues --    0.61269   0.62787   0.63582   0.63779   0.64947
 Alpha virt. eigenvalues --    0.65773   0.66223   0.67668   0.68419   0.68793
 Alpha virt. eigenvalues --    0.69032   0.69987   0.70413   0.71494   0.72349
 Alpha virt. eigenvalues --    0.73030   0.73559   0.73600   0.74755   0.75022
 Alpha virt. eigenvalues --    0.75599   0.75756   0.76093   0.77288   0.77976
 Alpha virt. eigenvalues --    0.78068   0.78755   0.78783   0.79175   0.79508
 Alpha virt. eigenvalues --    0.80326   0.80530   0.81634   0.82417   0.82466
 Alpha virt. eigenvalues --    0.82936   0.83296   0.84211   0.85008   0.85327
 Alpha virt. eigenvalues --    0.85629   0.86959   0.87319   0.88186   0.88473
 Alpha virt. eigenvalues --    0.89125   0.89439   0.90481   0.91086   0.91226
 Alpha virt. eigenvalues --    0.92270   0.92580   0.92787   0.93156   0.93700
 Alpha virt. eigenvalues --    0.95241   0.96087   0.96279   0.96626   0.97477
 Alpha virt. eigenvalues --    0.97818   0.98170   0.98730   0.99318   0.99753
 Alpha virt. eigenvalues --    1.00821   1.01681   1.02098   1.03057   1.03383
 Alpha virt. eigenvalues --    1.03452   1.04483   1.05271   1.05913   1.06225
 Alpha virt. eigenvalues --    1.06828   1.07325   1.07407   1.07455   1.09969
 Alpha virt. eigenvalues --    1.10370   1.10581   1.12063   1.12956   1.13492
 Alpha virt. eigenvalues --    1.13694   1.14498   1.14780   1.15748   1.16383
 Alpha virt. eigenvalues --    1.16631   1.17465   1.18379   1.18678   1.20242
 Alpha virt. eigenvalues --    1.20390   1.20761   1.22115   1.22835   1.23888
 Alpha virt. eigenvalues --    1.24011   1.25293   1.26695   1.26756   1.27465
 Alpha virt. eigenvalues --    1.27889   1.30086   1.30245   1.31327   1.32088
 Alpha virt. eigenvalues --    1.32814   1.34096   1.35117   1.35368   1.35991
 Alpha virt. eigenvalues --    1.37784   1.37974   1.38509   1.38708   1.40347
 Alpha virt. eigenvalues --    1.43148   1.43263   1.43579   1.44891   1.46902
 Alpha virt. eigenvalues --    1.47027   1.47352   1.48160   1.49097   1.49835
 Alpha virt. eigenvalues --    1.50703   1.51104   1.51484   1.51661   1.54333
 Alpha virt. eigenvalues --    1.54467   1.54759   1.55582   1.57249   1.58579
 Alpha virt. eigenvalues --    1.59823   1.60469   1.60564   1.62202   1.62944
 Alpha virt. eigenvalues --    1.63079   1.63459   1.64561   1.66892   1.67052
 Alpha virt. eigenvalues --    1.67787   1.68297   1.68643   1.69530   1.70099
 Alpha virt. eigenvalues --    1.71336   1.71460   1.73289   1.74874   1.75649
 Alpha virt. eigenvalues --    1.76064   1.77549   1.78219   1.79688   1.80230
 Alpha virt. eigenvalues --    1.80988   1.81711   1.82720   1.83179   1.84839
 Alpha virt. eigenvalues --    1.86060   1.86385   1.88070   1.88611   1.89077
 Alpha virt. eigenvalues --    1.90438   1.91596   1.92205   1.92695   1.92996
 Alpha virt. eigenvalues --    1.95393   1.96404   1.96848   1.97512   1.99941
 Alpha virt. eigenvalues --    2.00716   2.01371   2.02754   2.03767   2.05398
 Alpha virt. eigenvalues --    2.05639   2.09496   2.10425   2.11033   2.11977
 Alpha virt. eigenvalues --    2.13819   2.15006   2.16069   2.17777   2.19294
 Alpha virt. eigenvalues --    2.20101   2.21968   2.22007   2.23323   2.24889
 Alpha virt. eigenvalues --    2.26484   2.27006   2.28640   2.29688   2.33682
 Alpha virt. eigenvalues --    2.34113   2.34590   2.36567   2.36951   2.39887
 Alpha virt. eigenvalues --    2.40378   2.42152   2.42638   2.44638   2.46847
 Alpha virt. eigenvalues --    2.48785   2.49690   2.49855   2.50697   2.55275
 Alpha virt. eigenvalues --    2.55471   2.56653   2.56666   2.58295   2.59452
 Alpha virt. eigenvalues --    2.59851   2.61634   2.62419   2.64961   2.66236
 Alpha virt. eigenvalues --    2.67771   2.68723   2.69786   2.71188   2.72475
 Alpha virt. eigenvalues --    2.73783   2.74246   2.75104   2.76928   2.77429
 Alpha virt. eigenvalues --    2.80185   2.80614   2.81638   2.83399   2.86029
 Alpha virt. eigenvalues --    2.86665   2.87861   2.88366   2.89829   2.91032
 Alpha virt. eigenvalues --    2.91581   2.93093   2.94073   2.96211   2.97163
 Alpha virt. eigenvalues --    2.98239   2.98997   2.99763   3.00085   3.01684
 Alpha virt. eigenvalues --    3.01988   3.03059   3.04892   3.05392   3.07431
 Alpha virt. eigenvalues --    3.08921   3.10058   3.11167   3.11337   3.12552
 Alpha virt. eigenvalues --    3.12977   3.14685   3.15026   3.16460   3.17918
 Alpha virt. eigenvalues --    3.18525   3.19262   3.19503   3.20431   3.20997
 Alpha virt. eigenvalues --    3.21220   3.21532   3.25085   3.25105   3.26362
 Alpha virt. eigenvalues --    3.27582   3.28586   3.29325   3.29729   3.30363
 Alpha virt. eigenvalues --    3.31892   3.33610   3.34704   3.35040   3.35866
 Alpha virt. eigenvalues --    3.37811   3.39769   3.39885   3.42242   3.42860
 Alpha virt. eigenvalues --    3.43091   3.45705   3.45897   3.47249   3.48431
 Alpha virt. eigenvalues --    3.48724   3.50537   3.51760   3.51794   3.53147
 Alpha virt. eigenvalues --    3.54584   3.55314   3.55404   3.57051   3.58220
 Alpha virt. eigenvalues --    3.60316   3.62102   3.62210   3.64680   3.64927
 Alpha virt. eigenvalues --    3.65035   3.66869   3.67026   3.69097   3.71604
 Alpha virt. eigenvalues --    3.71863   3.74282   3.74623   3.75187   3.75365
 Alpha virt. eigenvalues --    3.77254   3.78351   3.79388   3.80733   3.81197
 Alpha virt. eigenvalues --    3.82084   3.82285   3.85785   3.86326   3.87698
 Alpha virt. eigenvalues --    3.89105   3.89561   3.89689   3.90252   3.91083
 Alpha virt. eigenvalues --    3.92176   3.93780   3.96057   3.96973   3.97972
 Alpha virt. eigenvalues --    3.98525   4.00046   4.01067   4.02608   4.02967
 Alpha virt. eigenvalues --    4.03466   4.05052   4.05402   4.07274   4.09099
 Alpha virt. eigenvalues --    4.09936   4.10222   4.11259   4.12278   4.15770
 Alpha virt. eigenvalues --    4.17246   4.18348   4.20233   4.21449   4.21576
 Alpha virt. eigenvalues --    4.24866   4.25762   4.28009   4.29482   4.30713
 Alpha virt. eigenvalues --    4.32218   4.32656   4.33235   4.34642   4.36504
 Alpha virt. eigenvalues --    4.37802   4.39884   4.41845   4.43528   4.44630
 Alpha virt. eigenvalues --    4.46389   4.48522   4.49972   4.52488   4.55608
 Alpha virt. eigenvalues --    4.56221   4.57696   4.58928   4.60255   4.60767
 Alpha virt. eigenvalues --    4.62746   4.62959   4.64502   4.67026   4.69263
 Alpha virt. eigenvalues --    4.69370   4.70299   4.73280   4.73858   4.75146
 Alpha virt. eigenvalues --    4.75471   4.78428   4.78516   4.80296   4.83312
 Alpha virt. eigenvalues --    4.86347   4.88000   4.90007   4.93509   4.94444
 Alpha virt. eigenvalues --    4.96420   4.98895   5.01251   5.01467   5.04169
 Alpha virt. eigenvalues --    5.05567   5.06360   5.07747   5.07939   5.14328
 Alpha virt. eigenvalues --    5.19107   5.28599   5.32235   5.35227   5.36550
 Alpha virt. eigenvalues --    5.37444   5.38457   5.40902   5.44065   5.44992
 Alpha virt. eigenvalues --    5.46782   5.51316   5.52413   5.58030   5.69539
 Alpha virt. eigenvalues --    5.70422   5.72087   5.76406   5.87533   5.90481
 Alpha virt. eigenvalues --    5.93694   5.94623   6.00467   6.06144   6.14105
 Alpha virt. eigenvalues --    6.23304   6.25213   6.30761   6.35295   6.36754
 Alpha virt. eigenvalues --    6.39629   6.41668   6.42987   6.48969   6.55036
 Alpha virt. eigenvalues --    6.58066   6.62140   6.71036   6.71255   6.74379
 Alpha virt. eigenvalues --    6.74952   6.79488   6.82320   6.86767   6.89396
 Alpha virt. eigenvalues --    6.90713   6.92215   7.00738   7.04726   7.08082
 Alpha virt. eigenvalues --    7.10015   7.13856   7.18580   7.33290   7.40070
 Alpha virt. eigenvalues --    7.52160   7.70282   7.89596   8.04407   8.41649
 Alpha virt. eigenvalues --    8.44488   8.46576   8.48996   8.51134   8.55156
 Alpha virt. eigenvalues --    8.65647   8.67534   8.76534   8.77439   8.77603
 Alpha virt. eigenvalues --    8.78988   8.81497   8.83377   8.84517   8.86927
 Alpha virt. eigenvalues --    8.87011   8.89080   8.91039   8.93482   8.93930
 Alpha virt. eigenvalues --    8.94744   8.98514   9.01692   9.03417   9.04174
 Alpha virt. eigenvalues --    9.12368   9.12565   9.14585   9.15131   9.21176
 Alpha virt. eigenvalues --    9.32256   9.34370   9.41191   9.53685   9.60122
 Alpha virt. eigenvalues --   15.41341  15.51317  15.71938  15.93113  16.22555
 Alpha virt. eigenvalues --   17.04470  17.80894  18.09220  18.66009  19.83058
 Alpha virt. eigenvalues --   20.14986  20.69577  20.89073
          Condensed to atoms (all electrons):
               1          2          3          4          5          6
     1  C    8.785747  -0.309713  -0.002691  -0.365981   0.254540  -1.170627
     2  C   -0.309713   7.511005  -0.289671   0.167618  -0.308949   0.095466
     3  C   -0.002691  -0.289671   8.478873  -1.133546  -0.088531  -0.317103
     4  C   -0.365981   0.167618  -1.133546   8.418141  -0.937759   0.038145
     5  C    0.254540  -0.308949  -0.088531  -0.937759   9.323552  -0.902117
     6  C   -1.170627   0.095466  -0.317103   0.038145  -0.902117   7.877870
     7  C   -0.571788   0.000467   0.124433   0.137542  -0.715985  -0.646185
     8  O    0.082808  -0.050905   0.011904  -0.033397   0.081863  -0.169843
     9  O    0.013525  -0.014158   0.016047  -0.026263  -0.099770   0.090198
    10  F    0.008953  -0.005947  -0.035161  -0.032938   0.019136  -0.018571
    11  C    0.102190  -0.008988  -0.482222  -0.402304  -0.108473  -0.041549
    12  F   -0.001611  -0.012420  -0.059767  -0.002075   0.017159  -0.005330
    13  F    0.008963  -0.005947  -0.035209  -0.033077   0.019132  -0.018552
    14  H    0.721709  -0.628536   0.173757   0.029909   0.049690  -0.910149
    15  H   -0.727710   0.904833  -0.777227   0.064405   0.016151   0.189279
    16  H    0.069274  -0.771914   0.801956  -0.714823   0.004620   0.036619
    17  H   -0.019156   0.036323   0.018776  -0.111684   0.086678  -0.080389
    18  H   -0.021137   0.003823  -0.002548   0.007165  -0.014723   0.009457
               7          8          9         10         11         12
     1  C   -0.571788   0.082808   0.013525   0.008953   0.102190  -0.001611
     2  C    0.000467  -0.050905  -0.014158  -0.005947  -0.008988  -0.012420
     3  C    0.124433   0.011904   0.016047  -0.035161  -0.482222  -0.059767
     4  C    0.137542  -0.033397  -0.026263  -0.032938  -0.402304  -0.002075
     5  C   -0.715985   0.081863  -0.099770   0.019136  -0.108473   0.017159
     6  C   -0.646185  -0.169843   0.090198  -0.018571  -0.041549  -0.005330
     7  C    7.673464  -0.152232  -0.011243   0.001068  -0.030401   0.001459
     8  O   -0.152232   9.340113  -0.106733   0.000122   0.002391  -0.000041
     9  O   -0.011243  -0.106733   8.638553   0.001107   0.006037   0.000168
    10  F    0.001068   0.000122   0.001107   9.244603   0.288029  -0.075716
    11  C   -0.030401   0.002391   0.006037   0.288029   5.718649   0.230333
    12  F    0.001459  -0.000041   0.000168  -0.075716   0.230333   9.247825
    13  F    0.001067   0.000122   0.001106  -0.025177   0.288214  -0.075687
    14  H    0.131629   0.001518   0.002075  -0.000435  -0.001891   0.000038
    15  H   -0.008435  -0.007605  -0.000651   0.000961   0.016435  -0.002591
    16  H   -0.003645   0.001394   0.000427  -0.008969  -0.212509   0.030643
    17  H   -0.190323   0.012069  -0.064125  -0.030820  -0.064521   0.004487
    18  H    0.089108  -0.105020   0.152152  -0.000040  -0.001502  -0.000001
              13         14         15         16         17         18
     1  C    0.008963   0.721709  -0.727710   0.069274  -0.019156  -0.021137
     2  C   -0.005947  -0.628536   0.904833  -0.771914   0.036323   0.003823
     3  C   -0.035209   0.173757  -0.777227   0.801956   0.018776  -0.002548
     4  C   -0.033077   0.029909   0.064405  -0.714823  -0.111684   0.007165
     5  C    0.019132   0.049690   0.016151   0.004620   0.086678  -0.014723
     6  C   -0.018552  -0.910149   0.189279   0.036619  -0.080389   0.009457
     7  C    0.001067   0.131629  -0.008435  -0.003645  -0.190323   0.089108
     8  O    0.000122   0.001518  -0.007605   0.001394   0.012069  -0.105020
     9  O    0.001106   0.002075  -0.000651   0.000427  -0.064125   0.152152
    10  F   -0.025177  -0.000435   0.000961  -0.008969  -0.030820  -0.000040
    11  C    0.288214  -0.001891   0.016435  -0.212509  -0.064521  -0.001502
    12  F   -0.075687   0.000038  -0.002591   0.030643   0.004487  -0.000001
    13  F    9.244622  -0.000436   0.000964  -0.008982  -0.030890  -0.000040
    14  H   -0.000436   1.838084  -0.506118   0.076295  -0.000537  -0.000595
    15  H    0.000964  -0.506118   2.116937  -0.647519  -0.002759   0.000165
    16  H   -0.008982   0.076295  -0.647519   2.332581   0.003789  -0.000145
    17  H   -0.030890  -0.000537  -0.002759   0.003789   1.149476  -0.002606
    18  H   -0.000040  -0.000595   0.000165  -0.000145  -0.002606   0.592244
 Mulliken charges:
               1
     1  C   -0.857294
     2  C   -0.312388
     3  C   -0.402069
     4  C    0.930922
     5  C   -0.696215
     6  C    1.943382
     7  C    0.169998
     8  O   -0.908528
     9  O   -0.598453
    10  F   -0.330206
    11  C    0.702081
    12  F   -0.296874
    13  F   -0.330194
    14  H    0.023993
    15  H    0.370484
    16  H    0.010907
    17  H    0.286211
    18  H    0.294242
 Sum of Mulliken charges =   0.00000
 Mulliken charges with hydrogens summed into heavy atoms:
               1
     1  C   -0.833301
     2  C    0.058096
     3  C   -0.391162
     4  C    0.930922
     5  C   -0.410004
     6  C    1.943382
     7  C    0.169998
     8  O   -0.908528
     9  O   -0.304211
    10  F   -0.330206
    11  C    0.702081
    12  F   -0.296874
    13  F   -0.330194
 Electronic spatial extent (au):  <R**2>=           2501.5795
 Charge=              0.0000 electrons
 Dipole moment (field-independent basis, Debye):
    X=             -0.0816    Y=              1.3430    Z=             -0.0004  Tot=              1.3455
 Quadrupole moment (field-independent basis, Debye-Ang):
   XX=            -82.2240   YY=            -63.2930   ZZ=            -73.8560
   XY=             -6.6807   XZ=              0.0013   YZ=              0.0001
 Traceless Quadrupole moment (field-independent basis, Debye-Ang):
   XX=             -9.0997   YY=              9.8313   ZZ=             -0.7316
   XY=             -6.6807   XZ=              0.0013   YZ=              0.0001
 Octapole moment (field-independent basis, Debye-Ang**2):
  XXX=            -51.4948  YYY=             -6.9966  ZZZ=             -0.0014  XYY=              7.6359
  XXY=            -27.9050  XXZ=             -0.0017  XZZ=             -8.3884  YZZ=             -8.4716
  YYZ=              0.0002  XYZ=             -0.0021
 Hexadecapole moment (field-independent basis, Debye-Ang**3):
 XXXX=          -2227.0008 YYYY=           -648.2160 ZZZZ=           -135.9235 XXXY=           -114.4030
 XXXZ=              0.0078 YYYX=            -24.1748 YYYZ=             -0.0023 ZZZX=              0.0032
 ZZZY=              0.0012 XXYY=           -376.7290 XXZZ=           -365.9693 YYZZ=           -154.6798
 XXYZ=              0.0017 YYXZ=              0.0018 ZZXY=             -2.7512
 N-N= 8.102646747981D+02 E-N=-3.404362156685D+03  KE= 7.552942284399D+02
 ******************************Gaussian NBO Version 3.1******************************
             N A T U R A L   A T O M I C   O R B I T A L   A N D
          N A T U R A L   B O N D   O R B I T A L   A N A L Y S I S
 ******************************Gaussian NBO Version 3.1******************************
       /RESON  / : Allow strongly delocalized NBO set

 Analyzing the SCF density

 Job title: 3-CF3_benzoic-acid                                              

 Storage needed:   1528079 in NPA,   2035985 in NBO (********** available)
 GSVD:  LWork=       20305 too small for GESVD, short by      951395 words or      951395 for optimal perf.


 NATURAL POPULATIONS:  Natural atomic orbital occupancies 
                                                          
   NAO  Atom  No  lang   Type(AO)    Occupancy      Energy
 ----------------------------------------------------------
     1    C    1  S      Cor( 1S)     1.99908     -10.40201
     2    C    1  S      Val( 2S)     0.94426      -0.19831
     3    C    1  S      Ryd( 4S)     0.00143       1.95179
     4    C    1  S      Ryd( 5S)     0.00012       2.77910
     5    C    1  S      Ryd( 3S)     0.00002       1.82615
     6    C    1  px     Val( 2p)     1.16588      -0.10004
     7    C    1  px     Ryd( 4p)     0.00487       1.91933
     8    C    1  px     Ryd( 5p)     0.00008       2.30493
     9    C    1  px     Ryd( 3p)     0.00010       1.42483
    10    C    1  py     Val( 2p)     1.06129      -0.06950
    11    C    1  py     Ryd( 4p)     0.00390       1.82906
    12    C    1  py     Ryd( 5p)     0.00003       1.99161
    13    C    1  py     Ryd( 3p)     0.00005       1.36393
    14    C    1  pz     Val( 2p)     0.91495      -0.13407
    15    C    1  pz     Ryd( 4p)     0.00064       1.03052
    16    C    1  pz     Ryd( 5p)     0.00006       1.36621
    17    C    1  pz     Ryd( 3p)     0.00003       0.84953
    18    C    1  dxy    Ryd( 3d)     0.00185       2.71418
    19    C    1  dxy    Ryd( 5d)     0.00021       3.95911
    20    C    1  dxy    Ryd( 4d)     0.00010       3.35670
    21    C    1  dxz    Ryd( 3d)     0.00040       1.49182
    22    C    1  dxz    Ryd( 5d)     0.00003       3.19247
    23    C    1  dxz    Ryd( 4d)     0.00003       1.64275
    24    C    1  dyz    Ryd( 3d)     0.00027       1.43844
    25    C    1  dyz    Ryd( 5d)     0.00007       3.14973
    26    C    1  dyz    Ryd( 4d)     0.00001       1.72017
    27    C    1  dx2y2  Ryd( 4d)     0.00188       3.42906
    28    C    1  dx2y2  Ryd( 5d)     0.00022       4.18697
    29    C    1  dx2y2  Ryd( 3d)     0.00006       2.42200
    30    C    1  dz2    Ryd( 3d)     0.00096       1.89322
    31    C    1  dz2    Ryd( 4d)     0.00011       3.95773
    32    C    1  dz2    Ryd( 5d)     0.00006       4.28564
    33    C    1  f(0)   Ryd( 4f)     0.00008       1.45325
    34    C    1  f(0)   Ryd( 5f)     0.00010       3.41233
    35    C    1  f(C1)  Ryd( 4f)     0.00045       1.91590
    36    C    1  f(C1)  Ryd( 5f)     0.00018       3.63349
    37    C    1  f(S1)  Ryd( 4f)     0.00038       1.82798
    38    C    1  f(S1)  Ryd( 5f)     0.00021       3.60792
    39    C    1  f(C2)  Ryd( 4f)     0.00021       1.43609
    40    C    1  f(C2)  Ryd( 5f)     0.00003       3.47597
    41    C    1  f(S2)  Ryd( 4f)     0.00015       1.58465
    42    C    1  f(S2)  Ryd( 5f)     0.00004       3.40983
    43    C    1  f(C3)  Ryd( 4f)     0.00112       1.94285
    44    C    1  f(C3)  Ryd( 5f)     0.00019       4.30714
    45    C    1  f(S3)  Ryd( 4f)     0.00040       2.76002
    46    C    1  f(S3)  Ryd( 5f)     0.00016       3.99768
 
    47    C    2  S      Cor( 1S)     1.99912     -10.39700
    48    C    2  S      Val( 2S)     0.94700      -0.20729
    49    C    2  S      Ryd( 3S)     0.00144       1.82601
    50    C    2  S      Ryd( 5S)     0.00006       2.66699
    51    C    2  S      Ryd( 4S)     0.00002       2.31031
    52    C    2  px     Val( 2p)     1.06117      -0.08354
    53    C    2  px     Ryd( 5p)     0.00370       1.73587
    54    C    2  px     Ryd( 3p)     0.00005       1.06493
    55    C    2  px     Ryd( 4p)     0.00001       1.35517
    56    C    2  py     Val( 2p)     1.18507      -0.10602
    57    C    2  py     Ryd( 4p)     0.00489       1.70915
    58    C    2  py     Ryd( 3p)     0.00005       1.69784
    59    C    2  py     Ryd( 5p)     0.00004       1.72459
    60    C    2  pz     Val( 2p)     0.99627      -0.14175
    61    C    2  pz     Ryd( 3p)     0.00069       1.00182
    62    C    2  pz     Ryd( 4p)     0.00001       1.07895
    63    C    2  pz     Ryd( 5p)     0.00004       1.13865
    64    C    2  dxy    Ryd( 5d)     0.00218       3.62792
    65    C    2  dxy    Ryd( 4d)     0.00031       3.59062
    66    C    2  dxy    Ryd( 3d)     0.00006       2.38230
    67    C    2  dxz    Ryd( 3d)     0.00042       1.56183
    68    C    2  dxz    Ryd( 5d)     0.00001       2.63303
    69    C    2  dxz    Ryd( 4d)     0.00002       2.17282
    70    C    2  dyz    Ryd( 3d)     0.00026       1.45256
    71    C    2  dyz    Ryd( 5d)     0.00006       2.70909
    72    C    2  dyz    Ryd( 4d)     0.00002       1.80124
    73    C    2  dx2y2  Ryd( 3d)     0.00191       2.38663
    74    C    2  dx2y2  Ryd( 5d)     0.00017       3.63370
    75    C    2  dx2y2  Ryd( 4d)     0.00005       3.09041
    76    C    2  dz2    Ryd( 3d)     0.00102       1.78329
    77    C    2  dz2    Ryd( 5d)     0.00009       4.07733
    78    C    2  dz2    Ryd( 4d)     0.00008       3.39737
    79    C    2  f(0)   Ryd( 5f)     0.00012       3.46195
    80    C    2  f(0)   Ryd( 4f)     0.00001       2.31811
    81    C    2  f(C1)  Ryd( 5f)     0.00030       3.78177
    82    C    2  f(C1)  Ryd( 4f)     0.00000       2.99119
    83    C    2  f(S1)  Ryd( 5f)     0.00016       3.65825
    84    C    2  f(S1)  Ryd( 4f)     0.00003       2.79128
    85    C    2  f(C2)  Ryd( 5f)     0.00002       3.67319
    86    C    2  f(C2)  Ryd( 4f)     0.00000       2.38725
    87    C    2  f(S2)  Ryd( 5f)     0.00001       3.54685
    88    C    2  f(S2)  Ryd( 4f)     0.00001       2.54861
    89    C    2  f(C3)  Ryd( 5f)     0.00015       4.37634
    90    C    2  f(C3)  Ryd( 4f)     0.00006       4.16457
    91    C    2  f(S3)  Ryd( 4f)     0.00013       4.18791
    92    C    2  f(S3)  Ryd( 5f)     0.00004       5.93181
 
    93    C    3  S      Cor( 1S)     1.99904     -10.40493
    94    C    3  S      Val( 2S)     0.94490      -0.20696
    95    C    3  S      Ryd( 3S)     0.00132       2.00795
    96    C    3  S      Ryd( 5S)     0.00011       2.68782
    97    C    3  S      Ryd( 4S)     0.00002       2.26508
    98    C    3  px     Val( 2p)     1.15774      -0.10597
    99    C    3  px     Ryd( 4p)     0.00446       1.89814
   100    C    3  px     Ryd( 5p)     0.00013       2.18726
   101    C    3  px     Ryd( 3p)     0.00006       1.41451
   102    C    3  py     Val( 2p)     1.09147      -0.09127
   103    C    3  py     Ryd( 4p)     0.00384       1.82952
   104    C    3  py     Ryd( 5p)     0.00006       1.93211
   105    C    3  py     Ryd( 3p)     0.00003       1.48492
   106    C    3  pz     Val( 2p)     0.93741      -0.14146
   107    C    3  pz     Ryd( 4p)     0.00064       1.00365
   108    C    3  pz     Ryd( 5p)     0.00003       1.30622
   109    C    3  pz     Ryd( 3p)     0.00006       0.94882
   110    C    3  dxy    Ryd( 3d)     0.00172       2.35689
   111    C    3  dxy    Ryd( 5d)     0.00018       3.89619
   112    C    3  dxy    Ryd( 4d)     0.00008       3.13512
   113    C    3  dxz    Ryd( 3d)     0.00040       1.43794
   114    C    3  dxz    Ryd( 5d)     0.00005       3.23322
   115    C    3  dxz    Ryd( 4d)     0.00006       1.68169
   116    C    3  dyz    Ryd( 3d)     0.00055       1.43335
   117    C    3  dyz    Ryd( 5d)     0.00006       3.20384
   118    C    3  dyz    Ryd( 4d)     0.00002       1.58657
   119    C    3  dx2y2  Ryd( 4d)     0.00221       3.57618
   120    C    3  dx2y2  Ryd( 5d)     0.00022       4.29722
   121    C    3  dx2y2  Ryd( 3d)     0.00005       2.08815
   122    C    3  dz2    Ryd( 3d)     0.00110       1.86777
   123    C    3  dz2    Ryd( 4d)     0.00008       4.05474
   124    C    3  dz2    Ryd( 5d)     0.00008       4.39721
   125    C    3  f(0)   Ryd( 4f)     0.00013       1.58013
   126    C    3  f(0)   Ryd( 5f)     0.00009       3.28382
   127    C    3  f(C1)  Ryd( 4f)     0.00053       2.03120
   128    C    3  f(C1)  Ryd( 5f)     0.00014       3.51890
   129    C    3  f(S1)  Ryd( 4f)     0.00049       1.94771
   130    C    3  f(S1)  Ryd( 5f)     0.00016       3.40214
   131    C    3  f(C2)  Ryd( 4f)     0.00016       1.56081
   132    C    3  f(C2)  Ryd( 5f)     0.00005       3.32892
   133    C    3  f(S2)  Ryd( 4f)     0.00016       1.74607
   134    C    3  f(S2)  Ryd( 5f)     0.00006       3.24048
   135    C    3  f(C3)  Ryd( 4f)     0.00081       2.04973
   136    C    3  f(C3)  Ryd( 5f)     0.00028       3.99663
   137    C    3  f(S3)  Ryd( 4f)     0.00045       2.79819
   138    C    3  f(S3)  Ryd( 5f)     0.00017       3.85155
 
   139    C    4  S      Cor( 1S)     1.99879     -10.41787
   140    C    4  S      Val( 2S)     0.91419      -0.18220
   141    C    4  S      Ryd( 3S)     0.00137       2.04822
   142    C    4  S      Ryd( 4S)     0.00011       2.48396
   143    C    4  S      Ryd( 5S)     0.00003       3.37088
   144    C    4  px     Val( 2p)     1.06097      -0.12213
   145    C    4  px     Ryd( 4p)     0.00508       2.25839
   146    C    4  px     Ryd( 3p)     0.00009       1.53891
   147    C    4  px     Ryd( 5p)     0.00006       2.30858
   148    C    4  py     Val( 2p)     1.09759      -0.11668
   149    C    4  py     Ryd( 4p)     0.00403       2.08886
   150    C    4  py     Ryd( 3p)     0.00008       1.65386
   151    C    4  py     Ryd( 5p)     0.00006       2.13091
   152    C    4  pz     Val( 2p)     1.05528      -0.15698
   153    C    4  pz     Ryd( 3p)     0.00188       0.98401
   154    C    4  pz     Ryd( 4p)     0.00009       1.19838
   155    C    4  pz     Ryd( 5p)     0.00007       1.29497
   156    C    4  dxy    Ryd( 3d)     0.00161       3.25947
   157    C    4  dxy    Ryd( 5d)     0.00040       4.00718
   158    C    4  dxy    Ryd( 4d)     0.00003       3.94126
   159    C    4  dxz    Ryd( 3d)     0.00025       1.31228
   160    C    4  dxz    Ryd( 5d)     0.00020       3.08676
   161    C    4  dxz    Ryd( 4d)     0.00005       2.19354
   162    C    4  dyz    Ryd( 3d)     0.00037       1.34373
   163    C    4  dyz    Ryd( 5d)     0.00014       3.11045
   164    C    4  dyz    Ryd( 4d)     0.00001       2.30094
   165    C    4  dx2y2  Ryd( 3d)     0.00162       3.01637
   166    C    4  dx2y2  Ryd( 5d)     0.00045       3.98162
   167    C    4  dx2y2  Ryd( 4d)     0.00008       3.88701
   168    C    4  dz2    Ryd( 3d)     0.00097       1.65910
   169    C    4  dz2    Ryd( 5d)     0.00010       4.18164
   170    C    4  dz2    Ryd( 4d)     0.00005       3.64694
   171    C    4  f(0)   Ryd( 4f)     0.00059       1.49076
   172    C    4  f(0)   Ryd( 5f)     0.00020       3.59157
   173    C    4  f(C1)  Ryd( 4f)     0.00070       1.96198
   174    C    4  f(C1)  Ryd( 5f)     0.00034       3.68470
   175    C    4  f(S1)  Ryd( 4f)     0.00079       1.88803
   176    C    4  f(S1)  Ryd( 5f)     0.00029       3.71845
   177    C    4  f(C2)  Ryd( 4f)     0.00054       1.36191
   178    C    4  f(C2)  Ryd( 5f)     0.00003       3.62281
   179    C    4  f(S2)  Ryd( 4f)     0.00059       1.34406
   180    C    4  f(S2)  Ryd( 5f)     0.00003       3.70154
   181    C    4  f(C3)  Ryd( 4f)     0.00273       2.03925
   182    C    4  f(C3)  Ryd( 5f)     0.00024       4.46323
   183    C    4  f(S3)  Ryd( 4f)     0.00079       2.86391
   184    C    4  f(S3)  Ryd( 5f)     0.00019       4.24031
 
   185    C    5  S      Cor( 1S)     1.99904     -10.40761
   186    C    5  S      Val( 2S)     0.93358      -0.19002
   187    C    5  S      Ryd( 3S)     0.00112       1.96826
   188    C    5  S      Ryd( 5S)     0.00015       2.76478
   189    C    5  S      Ryd( 4S)     0.00002       2.06284
   190    C    5  px     Val( 2p)     1.03958      -0.07737
   191    C    5  px     Ryd( 5p)     0.00265       2.04665
   192    C    5  px     Ryd( 3p)     0.00016       1.76826
   193    C    5  px     Ryd( 4p)     0.00005       2.04619
   194    C    5  py     Val( 2p)     1.18818      -0.10993
   195    C    5  py     Ryd( 4p)     0.00505       1.94629
   196    C    5  py     Ryd( 5p)     0.00013       2.39973
   197    C    5  py     Ryd( 3p)     0.00007       1.79406
   198    C    5  pz     Val( 2p)     0.92723      -0.14150
   199    C    5  pz     Ryd( 3p)     0.00097       1.01620
   200    C    5  pz     Ryd( 5p)     0.00009       1.39394
   201    C    5  pz     Ryd( 4p)     0.00006       1.10039
   202    C    5  dxy    Ryd( 4d)     0.00202       3.95349
   203    C    5  dxy    Ryd( 5d)     0.00033       4.20950
   204    C    5  dxy    Ryd( 3d)     0.00006       2.95266
   205    C    5  dxz    Ryd( 3d)     0.00056       1.48404
   206    C    5  dxz    Ryd( 5d)     0.00009       3.01489
   207    C    5  dxz    Ryd( 4d)     0.00003       2.31256
   208    C    5  dyz    Ryd( 3d)     0.00039       1.40691
   209    C    5  dyz    Ryd( 5d)     0.00005       3.03757
   210    C    5  dyz    Ryd( 4d)     0.00004       2.05062
   211    C    5  dx2y2  Ryd( 3d)     0.00131       2.35395
   212    C    5  dx2y2  Ryd( 4d)     0.00010       3.80074
   213    C    5  dx2y2  Ryd( 5d)     0.00007       4.59159
   214    C    5  dz2    Ryd( 3d)     0.00094       1.84497
   215    C    5  dz2    Ryd( 4d)     0.00015       3.71729
   216    C    5  dz2    Ryd( 5d)     0.00006       4.39389
   217    C    5  f(0)   Ryd( 4f)     0.00011       1.40545
   218    C    5  f(0)   Ryd( 5f)     0.00013       3.54828
   219    C    5  f(C1)  Ryd( 4f)     0.00035       2.06873
   220    C    5  f(C1)  Ryd( 5f)     0.00027       3.74176
   221    C    5  f(S1)  Ryd( 4f)     0.00057       1.80471
   222    C    5  f(S1)  Ryd( 5f)     0.00017       3.66721
   223    C    5  f(C2)  Ryd( 4f)     0.00018       1.42350
   224    C    5  f(C2)  Ryd( 5f)     0.00005       3.60400
   225    C    5  f(S2)  Ryd( 4f)     0.00039       1.38859
   226    C    5  f(S2)  Ryd( 5f)     0.00002       3.59847
   227    C    5  f(C3)  Ryd( 4f)     0.00126       1.91409
   228    C    5  f(C3)  Ryd( 5f)     0.00023       4.69060
   229    C    5  f(S3)  Ryd( 4f)     0.00042       3.69276
   230    C    5  f(S3)  Ryd( 5f)     0.00019       4.16160
 
   231    C    6  S      Cor( 1S)     1.99884     -10.38920
   232    C    6  S      Val( 2S)     0.88746      -0.13389
   233    C    6  S      Ryd( 3S)     0.00114       2.11831
   234    C    6  S      Ryd( 4S)     0.00009       2.42458
   235    C    6  S      Ryd( 5S)     0.00004       3.93238
   236    C    6  px     Val( 2p)     1.10708      -0.12170
   237    C    6  px     Ryd( 5p)     0.00566       2.36105
   238    C    6  px     Ryd( 4p)     0.00007       2.32791
   239    C    6  px     Ryd( 3p)     0.00005       0.98185
   240    C    6  py     Val( 2p)     1.13395      -0.12429
   241    C    6  py     Ryd( 5p)     0.00505       2.25318
   242    C    6  py     Ryd( 4p)     0.00008       2.23436
   243    C    6  py     Ryd( 3p)     0.00003       1.08455
   244    C    6  pz     Val( 2p)     1.06760      -0.15221
   245    C    6  pz     Ryd( 4p)     0.00117       0.97967
   246    C    6  pz     Ryd( 5p)     0.00009       1.87214
   247    C    6  pz     Ryd( 3p)     0.00002       0.64148
   248    C    6  dxy    Ryd( 3d)     0.00191       3.30600
   249    C    6  dxy    Ryd( 4d)     0.00018       3.63359
   250    C    6  dxy    Ryd( 5d)     0.00003       5.12253
   251    C    6  dxz    Ryd( 3d)     0.00024       1.65252
   252    C    6  dxz    Ryd( 5d)     0.00009       2.75533
   253    C    6  dxz    Ryd( 4d)     0.00001       2.44615
   254    C    6  dyz    Ryd( 3d)     0.00031       1.61519
   255    C    6  dyz    Ryd( 5d)     0.00007       2.69385
   256    C    6  dyz    Ryd( 4d)     0.00002       2.57551
   257    C    6  dx2y2  Ryd( 3d)     0.00075       3.12338
   258    C    6  dx2y2  Ryd( 4d)     0.00036       3.46613
   259    C    6  dx2y2  Ryd( 5d)     0.00006       5.48328
   260    C    6  dz2    Ryd( 3d)     0.00080       1.96724
   261    C    6  dz2    Ryd( 4d)     0.00019       3.73862
   262    C    6  dz2    Ryd( 5d)     0.00005       3.90136
   263    C    6  f(0)   Ryd( 4f)     0.00042       1.60769
   264    C    6  f(0)   Ryd( 5f)     0.00024       3.43851
   265    C    6  f(C1)  Ryd( 4f)     0.00049       2.04085
   266    C    6  f(C1)  Ryd( 5f)     0.00045       3.63237
   267    C    6  f(S1)  Ryd( 4f)     0.00071       2.00448
   268    C    6  f(S1)  Ryd( 5f)     0.00036       3.62033
   269    C    6  f(C2)  Ryd( 4f)     0.00065       1.50770
   270    C    6  f(C2)  Ryd( 5f)     0.00005       3.44069
   271    C    6  f(S2)  Ryd( 4f)     0.00070       1.56178
   272    C    6  f(S2)  Ryd( 5f)     0.00004       3.37512
   273    C    6  f(C3)  Ryd( 4f)     0.00198       2.61005
   274    C    6  f(C3)  Ryd( 5f)     0.00030       4.16879
   275    C    6  f(S3)  Ryd( 4f)     0.00115       3.11163
   276    C    6  f(S3)  Ryd( 5f)     0.00008       4.65165
 
   277    C    7  S      Cor( 1S)     1.99908     -10.54487
   278    C    7  S      Val( 2S)     0.77887      -0.10951
   279    C    7  S      Ryd( 3S)     0.00369       2.01018
   280    C    7  S      Ryd( 4S)     0.00012       2.08953
   281    C    7  S      Ryd( 5S)     0.00007       2.48860
   282    C    7  px     Val( 2p)     0.87845      -0.04146
   283    C    7  px     Ryd( 5p)     0.01124       1.58031
   284    C    7  px     Ryd( 3p)     0.00021       1.24435
   285    C    7  px     Ryd( 4p)     0.00003       1.41883
   286    C    7  py     Val( 2p)     0.76500      -0.04704
   287    C    7  py     Ryd( 5p)     0.00738       1.64149
   288    C    7  py     Ryd( 3p)     0.00011       1.35401
   289    C    7  py     Ryd( 4p)     0.00005       1.56236
   290    C    7  pz     Val( 2p)     0.75602      -0.13348
   291    C    7  pz     Ryd( 5p)     0.00060       1.13500
   292    C    7  pz     Ryd( 3p)     0.00009       0.77498
   293    C    7  pz     Ryd( 4p)     0.00003       0.93687
   294    C    7  dxy    Ryd( 4d)     0.00178       3.03344
   295    C    7  dxy    Ryd( 3d)     0.00017       2.84071
   296    C    7  dxy    Ryd( 5d)     0.00007       3.67870
   297    C    7  dxz    Ryd( 3d)     0.00147       2.26187
   298    C    7  dxz    Ryd( 5d)     0.00006       2.34811
   299    C    7  dxz    Ryd( 4d)     0.00005       2.33857
   300    C    7  dyz    Ryd( 3d)     0.00174       2.16443
   301    C    7  dyz    Ryd( 4d)     0.00003       2.31557
   302    C    7  dyz    Ryd( 5d)     0.00004       2.34906
   303    C    7  dx2y2  Ryd( 3d)     0.00114       3.05526
   304    C    7  dx2y2  Ryd( 4d)     0.00038       3.16154
   305    C    7  dx2y2  Ryd( 5d)     0.00005       3.38583
   306    C    7  dz2    Ryd( 3d)     0.00048       2.89392
   307    C    7  dz2    Ryd( 4d)     0.00059       3.24769
   308    C    7  dz2    Ryd( 5d)     0.00009       3.60167
   309    C    7  f(0)   Ryd( 5f)     0.00010       3.53332
   310    C    7  f(0)   Ryd( 4f)     0.00002       2.43707
   311    C    7  f(C1)  Ryd( 5f)     0.00013       3.73180
   312    C    7  f(C1)  Ryd( 4f)     0.00004       3.44033
   313    C    7  f(S1)  Ryd( 5f)     0.00008       3.69331
   314    C    7  f(S1)  Ryd( 4f)     0.00003       3.16622
   315    C    7  f(C2)  Ryd( 5f)     0.00003       3.60839
   316    C    7  f(C2)  Ryd( 4f)     0.00002       2.87767
   317    C    7  f(S2)  Ryd( 5f)     0.00000       3.46461
   318    C    7  f(S2)  Ryd( 4f)     0.00005       2.60292
   319    C    7  f(C3)  Ryd( 5f)     0.00007       4.59468
   320    C    7  f(C3)  Ryd( 4f)     0.00004       4.09115
   321    C    7  f(S3)  Ryd( 4f)     0.00006       4.60025
   322    C    7  f(S3)  Ryd( 5f)     0.00003       8.34411
 
   323    O    8  S      Cor( 1S)     1.99979     -19.33292
   324    O    8  S      Val( 2S)     1.70646      -1.00766
   325    O    8  S      Ryd( 4S)     0.00060       2.77981
   326    O    8  S      Ryd( 3S)     0.00017       1.86032
   327    O    8  S      Ryd( 5S)     0.00001       8.51702
   328    O    8  px     Val( 2p)     1.58569      -0.33903
   329    O    8  px     Ryd( 4p)     0.00053       1.62802
   330    O    8  px     Ryd( 3p)     0.00013       0.92119
   331    O    8  px     Ryd( 5p)     0.00006       5.09119
   332    O    8  py     Val( 2p)     1.83131      -0.35073
   333    O    8  py     Ryd( 4p)     0.00179       1.25813
   334    O    8  py     Ryd( 3p)     0.00007       0.88195
   335    O    8  py     Ryd( 5p)     0.00001       4.54487
   336    O    8  pz     Val( 2p)     1.45172      -0.29577
   337    O    8  pz     Ryd( 4p)     0.00053       1.05771
   338    O    8  pz     Ryd( 3p)     0.00001       0.64764
   339    O    8  pz     Ryd( 5p)     0.00001       4.02056
   340    O    8  dxy    Ryd( 3d)     0.00673       1.92352
   341    O    8  dxy    Ryd( 4d)     0.00008       2.49821
   342    O    8  dxy    Ryd( 5d)     0.00003       6.71325
   343    O    8  dxz    Ryd( 3d)     0.00558       1.56452
   344    O    8  dxz    Ryd( 4d)     0.00002       1.57659
   345    O    8  dxz    Ryd( 5d)     0.00002       6.55982
   346    O    8  dyz    Ryd( 3d)     0.00111       1.45274
   347    O    8  dyz    Ryd( 4d)     0.00002       1.51188
   348    O    8  dyz    Ryd( 5d)     0.00001       6.55366
   349    O    8  dx2y2  Ryd( 3d)     0.00659       1.99618
   350    O    8  dx2y2  Ryd( 4d)     0.00008       2.58600
   351    O    8  dx2y2  Ryd( 5d)     0.00004       6.71725
   352    O    8  dz2    Ryd( 3d)     0.00277       1.65930
   353    O    8  dz2    Ryd( 4d)     0.00009       2.37409
   354    O    8  dz2    Ryd( 5d)     0.00001       6.64769
   355    O    8  f(0)   Ryd( 4f)     0.00011       3.19788
   356    O    8  f(0)   Ryd( 5f)     0.00000       5.43157
   357    O    8  f(C1)  Ryd( 4f)     0.00014       3.80687
   358    O    8  f(C1)  Ryd( 5f)     0.00001       5.74588
   359    O    8  f(S1)  Ryd( 4f)     0.00004       3.24890
   360    O    8  f(S1)  Ryd( 5f)     0.00001       5.52689
   361    O    8  f(C2)  Ryd( 4f)     0.00013       3.19150
   362    O    8  f(C2)  Ryd( 5f)     0.00000       5.59997
   363    O    8  f(S2)  Ryd( 4f)     0.00016       3.21003
   364    O    8  f(S2)  Ryd( 5f)     0.00002       5.59385
   365    O    8  f(C3)  Ryd( 4f)     0.00041       3.73638
   366    O    8  f(C3)  Ryd( 5f)     0.00002       5.90691
   367    O    8  f(S3)  Ryd( 4f)     0.00034       4.06494
   368    O    8  f(S3)  Ryd( 5f)     0.00001       6.01650
 
   369    O    9  S      Cor( 1S)     1.99978     -19.46357
   370    O    9  S      Val( 2S)     1.67672      -1.03945
   371    O    9  S      Ryd( 3S)     0.00035       1.54834
   372    O    9  S      Ryd( 4S)     0.00010       2.85337
   373    O    9  S      Ryd( 5S)     0.00001       9.13847
   374    O    9  px     Val( 2p)     1.66441      -0.39583
   375    O    9  px     Ryd( 3p)     0.00046       1.19073
   376    O    9  px     Ryd( 4p)     0.00009       1.28669
   377    O    9  px     Ryd( 5p)     0.00006       4.65791
   378    O    9  py     Val( 2p)     1.49553      -0.37556
   379    O    9  py     Ryd( 4p)     0.00098       1.12747
   380    O    9  py     Ryd( 3p)     0.00009       0.91532
   381    O    9  py     Ryd( 5p)     0.00003       4.83030
   382    O    9  pz     Val( 2p)     1.84463      -0.41740
   383    O    9  pz     Ryd( 4p)     0.00104       0.88862
   384    O    9  pz     Ryd( 3p)     0.00001       0.72508
   385    O    9  pz     Ryd( 5p)     0.00000       3.92486
   386    O    9  dxy    Ryd( 3d)     0.00286       1.65383
   387    O    9  dxy    Ryd( 4d)     0.00008       2.23659
   388    O    9  dxy    Ryd( 5d)     0.00006       6.65359
   389    O    9  dxz    Ryd( 3d)     0.00255       1.16055
   390    O    9  dxz    Ryd( 4d)     0.00003       1.92111
   391    O    9  dxz    Ryd( 5d)     0.00001       6.35566
   392    O    9  dyz    Ryd( 3d)     0.00225       1.38404
   393    O    9  dyz    Ryd( 4d)     0.00006       1.78133
   394    O    9  dyz    Ryd( 5d)     0.00003       6.43113
   395    O    9  dx2y2  Ryd( 3d)     0.00685       2.11696
   396    O    9  dx2y2  Ryd( 4d)     0.00012       2.39439
   397    O    9  dx2y2  Ryd( 5d)     0.00004       6.87942
   398    O    9  dz2    Ryd( 3d)     0.00301       1.54025
   399    O    9  dz2    Ryd( 4d)     0.00012       2.40626
   400    O    9  dz2    Ryd( 5d)     0.00001       6.63268
   401    O    9  f(0)   Ryd( 4f)     0.00050       2.80388
   402    O    9  f(0)   Ryd( 5f)     0.00001       5.89756
   403    O    9  f(C1)  Ryd( 4f)     0.00015       3.21032
   404    O    9  f(C1)  Ryd( 5f)     0.00001       6.18765
   405    O    9  f(S1)  Ryd( 4f)     0.00022       3.59548
   406    O    9  f(S1)  Ryd( 5f)     0.00001       6.12310
   407    O    9  f(C2)  Ryd( 4f)     0.00002       2.94083
   408    O    9  f(C2)  Ryd( 5f)     0.00001       5.94974
   409    O    9  f(S2)  Ryd( 4f)     0.00008       2.80174
   410    O    9  f(S2)  Ryd( 5f)     0.00001       6.04979
   411    O    9  f(C3)  Ryd( 4f)     0.00006       3.72376
   412    O    9  f(C3)  Ryd( 5f)     0.00001       6.39931
   413    O    9  f(S3)  Ryd( 4f)     0.00012       4.57016
   414    O    9  f(S3)  Ryd( 5f)     0.00006       6.54867
 
   415    F   10  S      Cor( 1S)     1.99992     -25.01423
   416    F   10  S      Val( 2S)     1.84452      -1.45025
   417    F   10  S      Ryd( 3S)     0.00014       1.47547
   418    F   10  S      Ryd( 4S)     0.00004       3.54370
   419    F   10  S      Ryd( 5S)     0.00001      12.38544
   420    F   10  px     Val( 2p)     1.95060      -0.55192
   421    F   10  px     Ryd( 4p)     0.00042       1.02915
   422    F   10  px     Ryd( 3p)     0.00014       0.92682
   423    F   10  px     Ryd( 5p)     0.00001       4.96218
   424    F   10  py     Val( 2p)     1.81745      -0.53480
   425    F   10  py     Ryd( 4p)     0.00036       0.99378
   426    F   10  py     Ryd( 3p)     0.00011       0.81384
   427    F   10  py     Ryd( 5p)     0.00003       5.26164
   428    F   10  pz     Val( 2p)     1.71879      -0.52343
   429    F   10  pz     Ryd( 4p)     0.00055       0.99605
   430    F   10  pz     Ryd( 3p)     0.00012       0.84740
   431    F   10  pz     Ryd( 5p)     0.00007       5.52941
   432    F   10  dxy    Ryd( 4d)     0.00033       2.82430
   433    F   10  dxy    Ryd( 3d)     0.00007       2.40728
   434    F   10  dxy    Ryd( 5d)     0.00000       8.64620
   435    F   10  dxz    Ryd( 4d)     0.00065       2.90111
   436    F   10  dxz    Ryd( 3d)     0.00004       2.33858
   437    F   10  dxz    Ryd( 5d)     0.00001       8.62812
   438    F   10  dyz    Ryd( 3d)     0.00166       3.62720
   439    F   10  dyz    Ryd( 4d)     0.00010       3.81544
   440    F   10  dyz    Ryd( 5d)     0.00001       8.64011
   441    F   10  dx2y2  Ryd( 4d)     0.00045       2.81376
   442    F   10  dx2y2  Ryd( 3d)     0.00007       2.26867
   443    F   10  dx2y2  Ryd( 5d)     0.00000       8.65161
   444    F   10  dz2    Ryd( 4d)     0.00114       3.29101
   445    F   10  dz2    Ryd( 3d)     0.00006       2.90103
   446    F   10  dz2    Ryd( 5d)     0.00001       8.68814
   447    F   10  f(0)   Ryd( 4f)     0.00009       3.60831
   448    F   10  f(0)   Ryd( 5f)     0.00002       8.27584
   449    F   10  f(C1)  Ryd( 4f)     0.00007       3.52541
   450    F   10  f(C1)  Ryd( 5f)     0.00002       8.15547
   451    F   10  f(S1)  Ryd( 4f)     0.00010       3.70769
   452    F   10  f(S1)  Ryd( 5f)     0.00003       8.29648
   453    F   10  f(C2)  Ryd( 4f)     0.00008       3.58020
   454    F   10  f(C2)  Ryd( 5f)     0.00002       8.11701
   455    F   10  f(S2)  Ryd( 4f)     0.00008       3.56091
   456    F   10  f(S2)  Ryd( 5f)     0.00002       8.13700
   457    F   10  f(C3)  Ryd( 4f)     0.00001       3.47649
   458    F   10  f(C3)  Ryd( 5f)     0.00000       8.06105
   459    F   10  f(S3)  Ryd( 4f)     0.00002       3.46518
   460    F   10  f(S3)  Ryd( 5f)     0.00001       8.03216
 
   461    C   11  S      Cor( 1S)     1.99931     -10.71371
   462    C   11  S      Val( 2S)     0.78691      -0.23951
   463    C   11  S      Ryd( 4S)     0.00421       2.06853
   464    C   11  S      Ryd( 3S)     0.00039       1.81082
   465    C   11  S      Ryd( 5S)     0.00007       3.22372
   466    C   11  px     Val( 2p)     0.82511      -0.14126
   467    C   11  px     Ryd( 4p)     0.00749       1.64022
   468    C   11  px     Ryd( 3p)     0.00024       1.32565
   469    C   11  px     Ryd( 5p)     0.00006       1.67451
   470    C   11  py     Val( 2p)     0.68199      -0.12348
   471    C   11  py     Ryd( 4p)     0.00953       1.60771
   472    C   11  py     Ryd( 3p)     0.00024       1.27805
   473    C   11  py     Ryd( 5p)     0.00007       1.63026
   474    C   11  pz     Val( 2p)     0.61338      -0.11311
   475    C   11  pz     Ryd( 5p)     0.00931       1.51874
   476    C   11  pz     Ryd( 3p)     0.00023       1.12092
   477    C   11  pz     Ryd( 4p)     0.00006       1.36942
   478    C   11  dxy    Ryd( 5d)     0.00241       2.85356
   479    C   11  dxy    Ryd( 3d)     0.00029       2.35254
   480    C   11  dxy    Ryd( 4d)     0.00008       2.63952
   481    C   11  dxz    Ryd( 3d)     0.00317       2.15537
   482    C   11  dxz    Ryd( 4d)     0.00022       2.21493
   483    C   11  dxz    Ryd( 5d)     0.00006       2.31529
   484    C   11  dyz    Ryd( 5d)     0.00332       2.48096
   485    C   11  dyz    Ryd( 3d)     0.00038       2.39951
   486    C   11  dyz    Ryd( 4d)     0.00002       2.42179
   487    C   11  dx2y2  Ryd( 4d)     0.00232       2.61960
   488    C   11  dx2y2  Ryd( 3d)     0.00039       2.39799
   489    C   11  dx2y2  Ryd( 5d)     0.00010       2.74680
   490    C   11  dz2    Ryd( 4d)     0.00371       2.52032
   491    C   11  dz2    Ryd( 3d)     0.00030       2.48400
   492    C   11  dz2    Ryd( 5d)     0.00005       2.69712
   493    C   11  f(0)   Ryd( 5f)     0.00058       3.59113
   494    C   11  f(0)   Ryd( 4f)     0.00001       2.83668
   495    C   11  f(C1)  Ryd( 5f)     0.00022       4.12318
   496    C   11  f(C1)  Ryd( 4f)     0.00003       3.76367
   497    C   11  f(S1)  Ryd( 4f)     0.00016       4.29761
   498    C   11  f(S1)  Ryd( 5f)     0.00013       4.35462
   499    C   11  f(C2)  Ryd( 5f)     0.00015       4.09917
   500    C   11  f(C2)  Ryd( 4f)     0.00001       3.14488
   501    C   11  f(S2)  Ryd( 5f)     0.00058       3.61489
   502    C   11  f(S2)  Ryd( 4f)     0.00002       2.80527
   503    C   11  f(C3)  Ryd( 5f)     0.00041       3.93027
   504    C   11  f(C3)  Ryd( 4f)     0.00006       2.97258
   505    C   11  f(S3)  Ryd( 5f)     0.00015       4.52965
   506    C   11  f(S3)  Ryd( 4f)     0.00012       3.38128
 
   507    F   12  S      Cor( 1S)     1.99992     -25.02076
   508    F   12  S      Val( 2S)     1.84177      -1.45402
   509    F   12  S      Ryd( 3S)     0.00011       1.32721
   510    F   12  S      Ryd( 4S)     0.00005       3.54041
   511    F   12  S      Ryd( 5S)     0.00001      12.07769
   512    F   12  px     Val( 2p)     1.71745      -0.52740
   513    F   12  px     Ryd( 4p)     0.00044       0.98342
   514    F   12  px     Ryd( 3p)     0.00017       0.82615
   515    F   12  px     Ryd( 5p)     0.00006       5.58044
   516    F   12  py     Val( 2p)     1.82608      -0.54298
   517    F   12  py     Ryd( 4p)     0.00059       1.09782
   518    F   12  py     Ryd( 3p)     0.00014       0.86356
   519    F   12  py     Ryd( 5p)     0.00005       5.33031
   520    F   12  pz     Val( 2p)     1.94329      -0.55614
   521    F   12  pz     Ryd( 4p)     0.00026       0.97932
   522    F   12  pz     Ryd( 3p)     0.00003       0.66387
   523    F   12  pz     Ryd( 5p)     0.00000       4.89413
   524    F   12  dxy    Ryd( 3d)     0.00164       3.67253
   525    F   12  dxy    Ryd( 4d)     0.00011       3.79300
   526    F   12  dxy    Ryd( 5d)     0.00001       8.75870
   527    F   12  dxz    Ryd( 4d)     0.00065       2.87980
   528    F   12  dxz    Ryd( 3d)     0.00005       2.23796
   529    F   12  dxz    Ryd( 5d)     0.00000       8.60909
   530    F   12  dyz    Ryd( 4d)     0.00024       2.80866
   531    F   12  dyz    Ryd( 3d)     0.00003       2.20633
   532    F   12  dyz    Ryd( 5d)     0.00000       8.61936
   533    F   12  dx2y2  Ryd( 4d)     0.00097       3.19964
   534    F   12  dx2y2  Ryd( 3d)     0.00003       2.74435
   535    F   12  dx2y2  Ryd( 5d)     0.00001       8.73467
   536    F   12  dz2    Ryd( 4d)     0.00063       2.89218
   537    F   12  dz2    Ryd( 3d)     0.00011       2.80203
   538    F   12  dz2    Ryd( 5d)     0.00000       8.61545
   539    F   12  f(0)   Ryd( 4f)     0.00007       3.42644
   540    F   12  f(0)   Ryd( 5f)     0.00001       8.02273
   541    F   12  f(C1)  Ryd( 4f)     0.00004       3.52958
   542    F   12  f(C1)  Ryd( 5f)     0.00001       8.13429
   543    F   12  f(S1)  Ryd( 4f)     0.00003       3.45985
   544    F   12  f(S1)  Ryd( 5f)     0.00001       8.07227
   545    F   12  f(C2)  Ryd( 4f)     0.00003       3.47824
   546    F   12  f(C2)  Ryd( 5f)     0.00001       8.20559
   547    F   12  f(S2)  Ryd( 4f)     0.00008       3.49557
   548    F   12  f(S2)  Ryd( 5f)     0.00002       8.14505
   549    F   12  f(C3)  Ryd( 4f)     0.00008       3.63714
   550    F   12  f(C3)  Ryd( 5f)     0.00003       8.32891
   551    F   12  f(S3)  Ryd( 4f)     0.00011       3.69646
   552    F   12  f(S3)  Ryd( 5f)     0.00003       8.32328
 
   553    F   13  S      Cor( 1S)     1.99992     -25.01424
   554    F   13  S      Val( 2S)     1.84456      -1.45021
   555    F   13  S      Ryd( 3S)     0.00014       1.47514
   556    F   13  S      Ryd( 4S)     0.00004       3.54362
   557    F   13  S      Ryd( 5S)     0.00001      12.38611
   558    F   13  px     Val( 2p)     1.95060      -0.55189
   559    F   13  px     Ryd( 4p)     0.00042       1.02911
   560    F   13  px     Ryd( 3p)     0.00014       0.92667
   561    F   13  px     Ryd( 5p)     0.00001       4.96221
   562    F   13  py     Val( 2p)     1.81761      -0.53478
   563    F   13  py     Ryd( 4p)     0.00036       0.99378
   564    F   13  py     Ryd( 3p)     0.00011       0.81387
   565    F   13  py     Ryd( 5p)     0.00003       5.26126
   566    F   13  pz     Val( 2p)     1.71865      -0.52337
   567    F   13  pz     Ryd( 4p)     0.00055       0.99603
   568    F   13  pz     Ryd( 3p)     0.00012       0.84741
   569    F   13  pz     Ryd( 5p)     0.00007       5.52971
   570    F   13  dxy    Ryd( 4d)     0.00033       2.82397
   571    F   13  dxy    Ryd( 3d)     0.00007       2.40716
   572    F   13  dxy    Ryd( 5d)     0.00000       8.64620
   573    F   13  dxz    Ryd( 4d)     0.00065       2.90128
   574    F   13  dxz    Ryd( 3d)     0.00004       2.33887
   575    F   13  dxz    Ryd( 5d)     0.00001       8.62820
   576    F   13  dyz    Ryd( 3d)     0.00166       3.62705
   577    F   13  dyz    Ryd( 4d)     0.00010       3.81433
   578    F   13  dyz    Ryd( 5d)     0.00001       8.64018
   579    F   13  dx2y2  Ryd( 4d)     0.00045       2.81320
   580    F   13  dx2y2  Ryd( 3d)     0.00007       2.26825
   581    F   13  dx2y2  Ryd( 5d)     0.00000       8.65162
   582    F   13  dz2    Ryd( 4d)     0.00114       3.29143
   583    F   13  dz2    Ryd( 3d)     0.00006       2.90186
   584    F   13  dz2    Ryd( 5d)     0.00001       8.68818
   585    F   13  f(0)   Ryd( 4f)     0.00009       3.60820
   586    F   13  f(0)   Ryd( 5f)     0.00002       8.27611
   587    F   13  f(C1)  Ryd( 4f)     0.00007       3.52530
   588    F   13  f(C1)  Ryd( 5f)     0.00002       8.15578
   589    F   13  f(S1)  Ryd( 4f)     0.00010       3.70758
   590    F   13  f(S1)  Ryd( 5f)     0.00003       8.29679
   591    F   13  f(C2)  Ryd( 4f)     0.00008       3.57987
   592    F   13  f(C2)  Ryd( 5f)     0.00002       8.11723
   593    F   13  f(S2)  Ryd( 4f)     0.00008       3.56072
   594    F   13  f(S2)  Ryd( 5f)     0.00002       8.13731
   595    F   13  f(C3)  Ryd( 4f)     0.00001       3.47621
   596    F   13  f(C3)  Ryd( 5f)     0.00000       8.06114
   597    F   13  f(S3)  Ryd( 4f)     0.00002       3.46487
[...]
 81,-0.7317088,-0.7994535,-0.2513481,-0.3778738,-0.2475075,-0.6070786,-
 0.3605226,-0.372842,-0.3609435,-0.8711213,-0.7588735,-0.2300747,0.1574
 396,-0.2774481,-0.6491151,0.12406,0.1077257,0.0914754,-0.304444,2.0678
 429,-0.1932819,-0.2117846,-0.1083476,1.5768882,-0.0394865,-0.0986601,-
 0.0477482,1.5255021,-0.4956452,0.1497128,0.178186,0.1268809,-0.5074057
 ,-0.2938301,0.1477702,-0.2915997,-0.6515428,-0.6918492,0.2297019,-0.17
 03358,0.1977474,-0.427596,0.1966306,-0.2263103,0.2369271,-0.5930376,0.
 0365508,0.0081231,0.0020798,0.0153192,0.1203034,-0.0067877,0.0116618,-
 0.0074861,0.1176862,0.0057043,-0.0265071,-0.0476313,-0.0250288,0.08963
 2,-0.0599584,-0.0456581,-0.0601044,0.0483903,0.1020822,0.0090992,0.009
 4767,0.0104916,0.0876961,-0.0542739,0.0113308,-0.0544107,0.0578904,0.0
 681687,-0.0200287,-0.0324285,-0.0217762,0.1199288,-0.0122144,-0.034754
 2,-0.0120426,0.1081114,0.241736,0.0554552,0.0651875,0.0355148,0.348230
 7,0.0265992,0.0386362,0.0285355,0.3725911\Polar=115.8481058,-8.0022517
 ,85.0852806,-5.4685296,29.3849452,101.0223337\Quadrupole=-5.6365703,1.
 2820944,4.3544759,4.3946782,5.427888,3.8342451\PG=C01 [X(C8H5F3O2)]\NI
 mag=0\\0.74165769,-0.05006760,0.35012064,-0.00893753,0.26549650,0.4996
 4477,-0.14674448,0.01034758,0.00588011,0.71150019,0.05663176,-0.168484
 29,-0.13173181,-0.00017291,0.34837684,0.06750002,-0.13622550,-0.240218
 21,0.05535953,0.27897232,0.51560351,0.01141146,0.05831758,0.07816836,-
 0.32128533,0.02086209,0.00291475,0.67964611,0.02412838,0.00194374,-0.0
 0302191,0.06824237,-0.09909452,-0.03852568,-0.03787218,0.36618025,0.03
 265068,0.00029606,0.00953675,0.06599309,-0.04312450,-0.11618838,0.0016
 4428,0.29308314,0.53363160,-0.00695818,-0.01142218,-0.01534024,-0.0530
 6707,0.00057185,-0.00490622,-0.23601013,-0.07767490,-0.12025668,0.6841
 2508,-0.01351812,-0.03014778,-0.03401273,-0.03422822,0.02957019,0.0289
 6349,-0.03013670,-0.11924992,-0.07850658,-0.01048611,0.36977394,-0.018
 12978,-0.03380912,-0.05235674,-0.05123675,0.03234064,0.04340210,-0.056
 96778,-0.08312031,-0.17867150,0.03526569,0.25549982,0.52067492,-0.0532
 8084,-0.03246085,-0.04906666,-0.03875019,0.02598744,0.03132873,0.06413
 011,-0.00723349,-0.00419654,-0.13866752,0.00482437,-0.00054421,0.72652
 162,0.00140868,0.03049462,0.03142404,0.02689246,-0.02172167,-0.0195524
 9,-0.04409148,-0.01119596,-0.03002876,0.05173679,-0.16182011,-0.121361
 12,-0.00398382,0.34985575,-0.00397539,0.02813697,0.04406762,0.03253473
 ,-0.01964081,-0.02806485,-0.05326742,-0.02645104,-0.03224077,0.0619123
 5,-0.12591363,-0.22851466,0.05112518,0.27208576,0.51239099,-0.23774220
 ,-0.02955126,-0.05588384,0.06166851,-0.03970087,-0.04756481,-0.0750388
 2,-0.00841397,-0.01783171,0.00660683,0.05730560,0.07620216,-0.32689891
 ,0.02105165,0.00260357,0.72429222,-0.07190228,-0.11530672,-0.07084665,
 -0.00587124,-0.01139291,-0.02528687,-0.00659305,-0.00558876,0.00087952
 ,0.02142923,0.00096603,-0.00666775,0.06340323,-0.09561906,-0.03459447,
 -0.02137021,0.33191175,-0.11226766,-0.06673530,-0.16707664,-0.00252568
 ,-0.02857119,-0.03110942,-0.01540806,0.00070269,-0.00729006,0.02843803
 ,-0.00318632,0.00605656,0.05898795,-0.03870476,-0.11081320,0.02758453,
 0.24408328,0.47465717,0.01944372,-0.00933903,-0.01074080,-0.00263888,-
 0.00476194,-0.00736501,-0.00483420,-0.00054976,-0.00108372,-0.00698662
 ,0.00256909,0.00187468,-0.00231001,0.01824277,0.02402989,-0.10174527,0
 .00958087,0.01107605,0.96865969,-0.00398308,-0.01010489,-0.01653008,-0
 .00236846,0.00594379,-0.00287216,-0.00117920,-0.00016175,0.00128111,0.
 00016927,0.00818016,-0.00099249,0.01092180,-0.00357336,-0.00413728,0.0
 1624322,-0.12794355,-0.05629522,-0.11841185,0.39109147,-0.00361314,-0.
 01704983,-0.02102989,-0.00417855,-0.00310382,0.00338987,-0.00192155,0.
 00134184,0.00038999,-0.00132122,-0.00075922,0.00779856,0.01428612,-0.0
 0342566,-0.00284460,0.01994894,-0.05695107,-0.15834956,-0.08469403,0.2
 2093157,0.50250999,-0.00640200,-0.00362925,-0.00546871,0.00053082,0.00
 108306,0.00157433,-0.00001163,-0.00000581,-0.00002596,0.00003922,0.000
 84002,0.00130475,0.00339060,0.00162890,0.00225632,-0.02522243,0.019797
 02,0.02179987,-0.67851643,0.15642742,0.15021189,0.81346986,0.00177155,
 -0.00015442,-0.00023471,0.00043113,-0.00011578,0.00100041,0.00119154,-
 0.00011451,-0.00027234,0.00138969,-0.00234335,-0.00047390,-0.00294345,
 -0.00064777,-0.00446109,0.03130075,0.00576791,-0.01829162,0.15082772,-
 0.13468451,-0.05852082,-0.17233442,0.10254079,0.00172328,-0.00075861,-
 0.00069152,0.00070664,0.00106344,0.00064852,0.00156782,-0.00038846,-0.
 00018810,0.00203763,-0.00052745,-0.00239008,-0.00383179,-0.00401824,-0
 .00323306,0.03711384,-0.01940400,-0.00044976,0.14276008,-0.05797990,-0
 .14310393,-0.15380187,0.07526382,0.11875920,-0.00020655,0.00099298,0.0
 0117796,0.00114841,0.00029024,0.00054376,0.00070351,-0.00000307,0.0000
 5683,0.00129600,-0.00094442,-0.00105740,-0.00425563,0.00126350,0.00122
 915,0.00726263,-0.00248102,-0.00375722,-0.20688570,-0.03139120,-0.0555
 1660,-0.10760318,-0.01601884,-0.03466881,0.42392156,0.00415778,-0.0007
 7932,-0.00233174,-0.00042313,-0.00119596,-0.00100436,-0.00051202,-0.00
 027933,-0.00052229,-0.00012658,-0.00050082,0.00033734,-0.00056357,-0.0
 0145600,-0.00255011,-0.02031697,-0.00584555,-0.02563087,-0.04768433,-0
 .11189397,-0.06620870,-0.00928883,0.03228691,0.00241645,-0.04350514,0.
 26649291,0.00539239,-0.00263934,-0.00171528,-0.00040626,-0.00093546,-0
 .00175674,-0.00062066,-0.00047290,-0.00061420,0.00003162,0.00025786,-0
 .00041722,-0.00120438,-0.00237301,-0.00285800,-0.02750476,-0.02389529,
 -0.02256831,-0.07721735,-0.06462784,-0.15920730,-0.02570458,0.00176317
 ,0.02964770,-0.02051477,0.29922180,0.43505742,-0.00099805,-0.00047935,
 -0.00028000,-0.00152291,0.00198931,-0.00119267,-0.00177473,0.00173093,
 0.00520165,-0.03047087,-0.04041722,0.00845547,-0.00065416,-0.00138440,
 -0.00203718,-0.00015314,0.00131481,-0.00053142,-0.00028983,-0.00172192
 ,-0.00218962,-0.00035426,0.00076517,0.00097532,0.00068868,0.00091515,0
 .00110934,0.16311400,0.00007393,0.00022699,0.00064775,0.00009384,0.000
 19312,-0.00062607,-0.00200507,0.00066930,0.00121711,-0.01129355,-0.005
 70809,0.00293585,0.00035106,-0.00048313,-0.00254638,-0.00117210,0.0013
 1988,0.00025459,-0.00056240,-0.00090747,-0.00097804,-0.00000806,0.0003
 8383,0.00039797,0.00048088,0.00054577,0.00041416,0.14408556,0.31521097
 ,0.00028562,0.00035645,0.00047094,0.00098248,0.00013531,0.00052342,0.0
 0138441,-0.00070145,-0.00222478,0.00808616,0.00896113,0.00971073,-0.00
 023790,-0.00062203,-0.00012929,-0.00060623,0.00053673,0.00004587,-0.00
 034483,0.00027906,0.00012658,0.00021845,-0.00014890,-0.00009218,0.0000
 6679,-0.00013924,-0.00007222,-0.02943149,-0.04984786,0.09067152,0.0016
 1911,-0.00160144,-0.00190728,0.00058507,-0.00158544,-0.00273425,-0.022
 73465,0.00043597,-0.00185585,-0.20946902,0.02427394,0.01874184,-0.0060
 2156,0.00965120,0.01238313,0.00624625,-0.00173626,-0.00234701,0.001115
 37,0.00512758,0.00681355,0.00148635,-0.00252725,-0.00316492,-0.0019470
 1,-0.00245649,-0.00341202,-0.15822653,-0.09571284,0.02593326,0.6195845
 6,-0.00118783,-0.00168954,-0.00143886,-0.00391905,0.00347328,-0.005088
 29,-0.00749319,0.00848484,0.00742991,0.02626718,-0.08396530,-0.0164683
 4,0.01907227,-0.00319032,-0.00077594,0.00202053,0.00167850,-0.00637646
 ,0.00169594,0.00078561,-0.00045975,-0.00047758,-0.00033468,0.00027383,
 -0.00049812,-0.00021797,0.00032038,-0.09287865,-0.19230261,0.02684109,
 -0.02014001,0.53584523,-0.00135650,-0.00147899,-0.00279615,-0.00584064
 ,-0.00486202,-0.00003071,-0.01241040,0.00820117,0.01206890,0.02139913,
 -0.01666269,-0.08978457,0.02492554,-0.00169250,-0.00104778,0.00265485,
 -0.00674120,-0.00210166,0.00224436,-0.00012628,0.00130426,-0.00043557,
 0.00007469,-0.00051797,-0.00080416,0.00013015,-0.00039979,0.02712236,0
 .02965238,-0.08131587,-0.01657834,0.02700237,0.54843784,-0.00036869,0.
 00033024,0.00040521,0.00070591,0.00060053,0.00085920,-0.00212675,0.000
 21700,0.00008165,-0.00311132,0.02563688,0.03293708,-0.00683316,-0.0008
 2675,-0.00192612,-0.00050198,0.00163015,0.00217611,-0.00035160,-0.0013
 7610,-0.00183360,-0.00063957,0.00075724,0.00093438,0.00039635,0.000589
 24,0.00081563,0.01106295,-0.02572710,-0.01845549,-0.09721068,0.0289260
 0,0.03620730,0.08947291,0.00012816,0.00008339,0.00014209,0.00062322,0.
 00033157,0.00038086,-0.00257968,-0.00125733,-0.00194080,0.00469901,-0.
 00749173,-0.02189961,0.00464183,0.00138470,0.00005859,-0.00042840,-0.0
 0094828,-0.00054426,-0.00015893,0.00023384,0.00074757,0.00054928,-0.00
 029056,-0.00049695,0.00009247,-0.00012842,-0.00026472,-0.01559078,-0.0
 6645560,-0.04056608,0.03552163,-0.14864213,-0.09681706,-0.02327530,0.2
 0370180,0.00013635,0.00016204,0.00021483,0.00088981,0.00037831,0.00068
 152,-0.00364323,-0.00167013,-0.00256377,0.00505184,-0.01986418,-0.0166
 6903,0.00535563,-0.00047168,0.00156960,-0.00056443,-0.00034529,-0.0010
 8414,-0.00021287,0.00062930,0.00047824,0.00065746,-0.00047672,-0.00044
 837,0.00015415,-0.00021650,-0.00019615,-0.01078326,-0.02915219,0.00412
 164,0.04499114,-0.09745786,-0.19878000,-0.03010129,0.16219494,0.293311
 18,-0.00094910,-0.00007164,-0.00060591,-0.00170118,-0.00144740,0.00147
 609,-0.00127480,0.00438268,0.00281172,-0.02421307,0.02179725,-0.036832
 24,-0.00069221,-0.00127703,-0.00186876,-0.00023717,-0.00085220,0.00100
 860,-0.00025342,-0.00152117,-0.00213891,-0.00033540,0.00072095,0.00092
 002,0.00063455,0.00072012,0.00115462,0.02055061,-0.00885921,0.01164456
 ,-0.13740414,0.05123168,-0.07439340,0.01260087,-0.00517074,-0.01293963
 ,0.13400982,0.00033465,0.00016558,0.00041839,0.00111461,0.00068167,0.0
 0018906,0.00191415,-0.00273237,-0.00165832,0.01282814,0.00228029,0.016
 42865,-0.00017668,0.00084822,-0.00012330,-0.00024410,0.00003739,0.0000
 1714,-0.00016919,0.00039613,0.00080384,0.00025217,-0.00021100,-0.00036
 942,-0.00011695,-0.00016042,-0.00044211,0.00303235,-0.05195934,0.05468
 409,0.05108666,-0.11473967,0.06309121,-0.00886362,0.01873083,-0.015467
 73,-0.06139838,0.14703465,0.00010554,0.00061605,0.00048360,0.00018703,
 -0.00063562,0.00021418,-0.00163096,0.00086160,0.00067797,-0.00962480,0
 .00844495,-0.00453406,0.00010651,-0.00232163,-0.00142159,-0.00141907,-
 0.00008219,0.00141188,-0.00063969,-0.00069751,-0.00121302,0.00002294,0
 .00029830,0.00048364,0.00050419,0.00023489,0.00068793,0.00205696,0.045
 65654,-0.02235750,-0.07716717,0.06619076,-0.17969427,-0.02368550,-0.00
 270970,-0.08260140,0.11065939,-0.11807898,0.28794059,-0.32110030,0.061
 33150,0.05465146,0.00001858,-0.00007957,-0.00063507,0.00134726,0.00061
 674,0.00019196,0.00068324,-0.00034538,-0.00033890,-0.00137542,-0.00184
 809,-0.00319111,-0.01761827,0.00558875,0.00522503,-0.00269070,0.000843
 61,0.00124856,0.00199512,0.00079381,0.00127349,0.00054128,-0.00002270,
 0.00001172,0.00008513,0.00003440,0.00001633,-0.00026914,-0.00002201,0.
 00002599,-0.00000998,0.00001510,0.00002228,0.00010786,-0.00000515,0.00
 006227,0.33855976,0.06251141,-0.06310695,-0.02076953,0.01736409,0.0016
 8231,-0.00335722,0.00092687,0.00299215,-0.00634825,-0.00043308,-0.0008
 0394,-0.00036361,-0.00177712,0.00295875,-0.00442395,-0.01098298,0.0078
 5955,0.00246694,-0.00183578,-0.00234162,0.00200489,0.00080931,-0.00074
 480,-0.00059599,0.00085642,0.00030795,0.00034704,-0.00021270,-0.000072
 74,-0.00000236,0.00008987,-0.00068480,0.00021316,0.00001884,0.00007123
 ,0.00013971,0.00014300,-0.00000922,0.00017342,-0.06699176,0.05406736,0
 .05622305,-0.02088369,-0.06529371,0.02258830,-0.00505090,0.00093857,0.
 00060457,-0.00637838,-0.00060505,-0.00045558,-0.00035501,-0.00107921,-
 0.00309649,-0.00443088,-0.00004735,-0.01683811,0.00407527,0.00899660,-
 0.00231892,0.00226543,-0.00119066,0.00129446,-0.00059752,-0.00090808,0
 .00118210,0.00026151,0.00057292,0.00010920,0.00014467,0.00005313,0.000
 17488,0.00020232,-0.00055201,0.00002725,0.00013930,0.00015580,-0.00016
 246,0.00003609,-0.00003325,-0.05906617,0.02786254,0.05961488,0.0098559
 9,0.00399227,0.00586862,-0.20871357,-0.07831958,-0.12066866,-0.0165096
 7,-0.01226483,-0.01830768,-0.00475034,0.00218994,0.00177472,-0.0003508
 3,0.00064652,0.00092320,0.00093890,0.00165036,0.00153934,0.00049301,0.
 00017141,0.00024767,-0.00004068,-0.00004502,-0.00006830,-0.00003240,0.
 00011234,0.00016038,-0.00056005,-0.00023123,0.00022466,0.00053545,-0.0
 0093837,-0.00122134,-0.00006630,0.00016875,0.00021692,-0.00054039,0.00
 034434,-0.00019719,0.00054086,-0.00053275,-0.00023824,0.21811557,-0.01
 438142,-0.00262493,-0.01042127,-0.07838142,-0.08878058,-0.07284535,0.0
 0605572,0.00653730,0.00412840,0.00214265,0.00458266,-0.00301147,0.0006
 4595,-0.00089780,0.00019072,0.00192370,0.00307105,-0.00599535,-0.00104
 075,0.00035205,-0.00002066,0.00025296,-0.00005963,-0.00011567,0.000028
 38,-0.00040316,-0.00034307,0.00026660,0.00005826,-0.00014901,0.0001442
 0,0.00041266,0.00023283,-0.00003372,-0.00001462,-0.00004166,-0.0000462
 0,0.00000532,0.00003208,-0.00007164,-0.00233638,0.00262196,0.08323113,
 0.08314534,-0.01859304,-0.00863766,-0.00915039,-0.12075106,-0.07283932
 ,-0.14847560,0.00608317,0.00234990,0.00759697,0.00171206,-0.00300682,0
 .00316395,0.00092249,0.00019078,-0.00065041,0.00190345,-0.00602204,-0.
 00011783,-0.00136619,0.00009695,0.00028836,0.00032844,-0.00014455,-0.0
 0011500,0.00004858,-0.00033486,-0.00058466,-0.00002406,0.00002930,-0.0
 0000958,0.00021980,0.00012787,0.00043990,-0.00005266,-0.00002202,-0.00
 002025,0.00019428,-0.00015671,0.00002390,0.00037560,0.00257718,-0.0008
 4343,0.12937594,0.08303493,0.14995123,-0.00545168,0.00148967,0.0007433
 6,-0.00119713,0.01776791,0.02304815,-0.07581058,0.04233956,0.05303091,
 0.01043996,-0.01278963,-0.01652963,-0.00340351,-0.00166396,-0.00319451
 ,-0.00146549,-0.00030058,-0.00047413,-0.00040999,0.00005747,0.00014971
 ,0.00029968,0.00002060,0.00004192,0.00015253,-0.00002694,-0.00002798,0
 .00010690,0.00056215,0.00023247,0.00103009,-0.00200990,-0.00226785,-0.
 00310330,0.00099058,0.00104889,0.00017969,0.00003085,0.00066480,-0.000
 03897,0.00076079,0.00104252,0.00102976,-0.00056463,-0.00026597,0.07714
 452,0.00125601,0.00504183,-0.00291362,0.00011970,0.00154940,-0.0046578
 3,0.04125732,-0.14990199,-0.14041313,0.00344669,-0.00195352,-0.0093392
 9,-0.00167273,0.00404463,-0.00367771,-0.00021972,-0.00010852,0.0007712
 5,-0.00003713,-0.00085904,0.00040300,-0.00000698,0.00009961,-0.0000678
 1,0.00005010,0.00004487,-0.00003052,-0.00089307,-0.00023859,0.00010192
 ,0.00054170,-0.00297224,0.00032718,0.00144401,0.00044139,0.00115022,0.
 00064836,-0.00012936,0.00047995,-0.00011247,-0.00030282,0.00004441,-0.
 00010541,-0.00230178,0.00221696,-0.04599009,0.14766840,0.00043226,-0.0
 0289068,0.00351518,-0.00044745,-0.00294475,0.00109286,0.05159002,-0.14
 030856,-0.22321840,0.00508653,-0.01091541,-0.00872586,-0.00320639,-0.0
 0367663,0.00147886,-0.00036641,0.00076328,0.00027685,0.00002375,0.0004
 1222,-0.00061328,0.00000526,-0.00006512,0.00006383,0.00007456,-0.00003
 799,0.00002810,0.00047457,0.00044003,0.00011098,0.00112969,0.00007978,
 -0.00296294,0.00165252,0.00110592,0.00131549,-0.00069314,0.00022333,-0
 .00007201,-0.00012009,0.00012917,-0.00018408,0.00034545,0.00217237,-0.
 00104888,-0.05638106,0.15591658,0.22931004,-0.00447753,0.00240758,0.00
 210058,-0.00022156,0.00045177,0.00068314,0.00034394,0.00183758,0.00179
 835,0.01026930,0.00331183,0.00491215,-0.21004865,-0.07772568,-0.119881
 31,-0.01561771,-0.01205636,-0.01797722,-0.00174521,-0.00171624,-0.0020
 3125,0.00103342,0.00019750,0.00029682,0.00115284,0.00021174,0.00037455
 ,-0.00047467,-0.00004557,-0.00001077,0.00070669,0.00035497,0.00071963,
 0.00016523,-0.00024309,-0.00029724,-0.00036526,0.00000243,0.00005282,-
 0.00073896,-0.00067585,-0.00099799,0.00002241,-0.00011035,-0.00003896,
 0.00047163,0.00026501,0.00038396,0.21896564,0.00229016,0.00429359,-0.0
 0325231,0.00051304,-0.00083342,0.00035610,0.00190292,0.00268753,-0.005
 58562,-0.01330117,-0.00148351,-0.01003960,-0.07878249,-0.08917633,-0.0
 7170810,0.00471137,0.00690805,0.00402785,0.00021291,-0.00211392,0.0030
 1399,-0.00045242,0.00040191,-0.00042007,0.00062702,-0.00124486,-0.0018
 6290,-0.00036506,-0.00037886,0.00022553,-0.00149000,-0.00200364,-0.000
 36109,0.00004991,0.00021081,0.00042699,0.00108607,-0.00023759,0.001498
 03,0.00034382,0.00039572,0.00019637,-0.00009491,-0.00068501,0.00052995
 ,-0.00068497,-0.00011301,-0.00041771,0.08341480,0.08344516,0.00194404,
 -0.00324094,0.00277742,0.00076468,0.00035027,-0.00052291,0.00188536,-0
 .00559202,-0.00024001,-0.01720485,-0.00842727,-0.00780164,-0.12128889,
 -0.07160487,-0.14816009,0.00434705,0.00239995,0.00784306,0.00053736,0.
 00282704,-0.00054628,-0.00056839,-0.00035712,0.00015388,0.00092729,-0.
 00190323,-0.00224412,0.00110872,0.00134786,0.00034546,-0.00173655,-0.0
 0018250,-0.00225191,0.00009302,0.00039844,0.00043327,-0.00005005,0.000
 30180,0.00009467,0.00035946,0.00009739,0.00043785,-0.00001839,0.000528
 46,-0.00038824,-0.00088079,-0.00032548,-0.00036804,0.12968930,0.083300
 50,0.15044534,0.00069163,-0.00058680,-0.00076473,-0.00031518,-0.000168
 25,-0.00022099,-0.00017111,0.00008679,0.00009700,0.00024451,0.00011688
 ,0.00016815,-0.00049973,0.00027876,0.00034429,-0.00477394,-0.00123122,
 -0.00254711,0.01994607,-0.02629254,-0.03346797,-0.00311947,0.00370133,
 0.00518443,-0.11696787,0.11822032,0.14756251,-0.00012907,-0.00006469,0
 .00001152,0.00037380,-0.00000387,0.00000904,-0.00008089,0.00001686,0.0
 0001750,-0.00011727,0.00003373,-0.00005808,-0.00003735,-0.00003859,-0.
 00007235,0.00003227,-0.00006118,-0.00007187,0.00002590,0.00000870,0.00
 001595,0.00055845,0.00001900,0.00009163,0.10433925,0.00034788,0.000028
 45,-0.00062357,-0.00037759,-0.00018304,0.00017959,0.00003438,0.0000813
 2,0.00008535,0.00005707,0.00011479,0.00000430,-0.00025376,0.00019480,0
 .00053179,-0.00215624,0.00323324,-0.00199237,0.00142180,-0.01239896,-0
 .02176914,0.00456322,-0.00177996,0.00572707,0.09027674,-0.17557263,-0.
 20443724,-0.00015673,-0.00010171,0.00005562,0.00037697,0.00006277,-0.0
 0018331,-0.00009745,0.00003911,0.00008242,-0.00008613,-0.00000112,0.00
 003907,-0.00006898,0.00006824,-0.00015349,0.00002501,-0.00006076,0.000
 01017,0.00001112,-0.00000926,0.00001415,0.00011791,-0.00007264,0.00008
 170,-0.09403523,0.18635735,0.00047981,-0.00071441,-0.00038257,-0.00050
 002,0.00019991,-0.00012774,0.00002733,0.00009050,0.00014285,0.00008857
 ,0.00001006,0.00013773,-0.00036489,0.00058366,0.00051858,-0.00377906,-
 0.00190120,0.00167258,0.00343721,-0.02446390,-0.02818730,0.00633092,0.
 00564400,0.00238130,0.11035360,-0.20172225,-0.27336006,-0.00014388,0.0
 0001232,0.00002113,0.00051611,-0.00022032,-0.00001525,-0.00013470,0.00
 009350,0.00008154,-0.00018479,0.00010299,-0.00009125,-0.00011281,-0.00
 015052,-0.00003291,0.00004291,0.00000177,-0.00006002,0.00001918,0.0000
 1391,0.00000131,0.00022343,0.00007210,-0.00000769,-0.11629892,0.222347
 89,0.29730777\\0.00005661,0.00000146,0.00000901,0.00008701,-0.00001363
 ,-0.00001077,-0.00011366,0.00001762,0.00001280,-0.00001601,0.00006756,
 0.00008715,0.00007449,-0.00007828,-0.00009558,-0.00000015,-0.00008815,
 -0.00010316,-0.00018674,0.00009665,0.00006225,0.00013109,-0.00002680,-
 0.00000457,-0.00000435,0.00000939,0.00002643,-0.00001877,0.00006216,-0
 .00002159,0.00001870,0.00001261,0.00001755,-0.00005515,-0.00003196,-0.
 00004782,-0.00002581,-0.00003631,0.00005250,0.00000975,0.00001308,0.00
 001838,0.00000495,0.00000711,0.00000979,0.00002742,-0.00000379,-0.0000
 0233,-0.00001032,0.00000391,0.00000436,0.00002095,-0.00001262,-0.00001
 442\\\@
 The archive entry for this job was punched.


 THIS CURIOUS WORLD WHICH WE INHABIT IS MORE WONDERFUL THAN IT IS CONVENIENT;
 MORE BEAUTIFUL THAN IT IS USEFUL;
 IT IS MORE TO BE ADMIRED THAN IT IS TO BE USED.

                                                                 -- THOREAU
 Job cpu time:       1 days  2 hours  3 minutes 20.3 seconds.
 Elapsed time:       0 days  0 hours 39 minutes  6.1 seconds.
 File lengths (MBytes):  RWF=    645 Int=      0 D2E=      0 Chk=     40 Scr=      1
 Normal termination of Gaussian 16 at Tue Sep  6 17:20:29 2022.
