 Entering Gaussian System, Link 0=g16
 Initial command:
 /usr/local/gaussian16c01/g16/l1.exe "/scr/dhuang/Gau-124791.inp" -scrdir="/scr/dhuang/"
 Entering Link 1 = /usr/local/gaussian16c01/g16/l1.exe PID=    124792.
  
 Copyright (c) 1988-2019, Gaussian, Inc.  All Rights Reserved.
  
 This is part of the Gaussian(R) 16 program.  It is based on
 the Gaussian(R) 09 system (copyright 2009, Gaussian, Inc.),
 the Gaussian(R) 03 system (copyright 2003, Gaussian, Inc.),
 the Gaussian(R) 98 system (copyright 1998, Gaussian, Inc.),
 the Gaussian(R) 94 system (copyright 1995, Gaussian, Inc.),
 the Gaussian 92(TM) system (copyright 1992, Gaussian, Inc.),
 the Gaussian 90(TM) system (copyright 1990, Gaussian, Inc.),
 the Gaussian 88(TM) system (copyright 1988, Gaussian, Inc.),
 the Gaussian 86(TM) system (copyright 1986, Carnegie Mellon
 University), and the Gaussian 82(TM) system (copyright 1983,
 Carnegie Mellon University). Gaussian is a federally registered
 trademark of Gaussian, Inc.
  
 This software contains proprietary and confidential information,
 including trade secrets, belonging to Gaussian, Inc.
  
 This software is provided under written license and may be
 used, copied, transmitted, or stored only in accord with that
 written license.
  
 The following legend is applicable only to US Government
 contracts under FAR:
  
                    RESTRICTED RIGHTS LEGEND
  
 Use, reproduction and disclosure by the US Government is
 subject to restrictions as set forth in subparagraphs (a)
 and (c) of the Commercial Computer Software - Restricted
 Rights clause in FAR 52.227-19.
  
 Gaussian, Inc.
 340 Quinnipiac St., Bldg. 40, Wallingford CT 06492
  
  
 ---------------------------------------------------------------
 Warning -- This program may not be used in any manner that
 competes with the business of Gaussian, Inc. or will provide
 assistance to any competitor of Gaussian, Inc.  The licensee
 of this program is prohibited from giving any competitor of
 Gaussian, Inc. access to this program.  By using this program,
 the user acknowledges that Gaussian, Inc. is engaged in the
 business of creating and licensing software in the field of
 computational chemistry and represents and warrants to the
 licensee that it is not a competitor of Gaussian, Inc. and that
 it will not use this program in any manner prohibited above.
 ---------------------------------------------------------------
  

 Cite this work as:
 Gaussian 16, Revision C.01,
 M. J. Frisch, G. W. Trucks, H. B. Schlegel, G. E. Scuseria, 
 M. A. Robb, J. R. Cheeseman, G. Scalmani, V. Barone, 
 G. A. Petersson, H. Nakatsuji, X. Li, M. Caricato, A. V. Marenich, 
 J. Bloino, B. G. Janesko, R. Gomperts, B. Mennucci, H. P. Hratchian, 
 J. V. Ortiz, A. F. Izmaylov, J. L. Sonnenberg, D. Williams-Young, 
 F. Ding, F. Lipparini, F. Egidi, J. Goings, B. Peng, A. Petrone, 
 T. Henderson, D. Ranasinghe, V. G. Zakrzewski, J. Gao, N. Rega, 
 G. Zheng, W. Liang, M. Hada, M. Ehara, K. Toyota, R. Fukuda, 
 J. Hasegawa, M. Ishida, T. Nakajima, Y. Honda, O. Kitao, H. Nakai, 
 T. Vreven, K. Throssell, J. A. Montgomery, Jr., J. E. Peralta, 
 F. Ogliaro, M. J. Bearpark, J. J. Heyd, E. N. Brothers, K. N. Kudin, 
 V. N. Staroverov, T. A. Keith, R. Kobayashi, J. Normand, 
 K. Raghavachari, A. P. Rendell, J. C. Burant, S. S. Iyengar, 
 J. Tomasi, M. Cossi, J. M. Millam, M. Klene, C. Adamo, R. Cammi, 
 J. W. Ochterski, R. L. Martin, K. Morokuma, O. Farkas, 
 J. B. Foresman, and D. J. Fox, Gaussian, Inc., Wallingford CT, 2019.
 
 ******************************************
 Gaussian 16:  ES64L-G16RevC.01  3-Jul-2019
                 6-Sep-2022 
 ******************************************
 %nprocshared=40
 Will use up to   40 processors via shared memory.
 %mem=10000MW
 %chk=3-CHO.chk
 ------------------------------------
 # opt freq M062x/aug-cc-pvtz pop=nbo
 ------------------------------------
 1/18=20,19=15,26=3,38=1/1,3;
 2/9=110,12=2,17=6,18=5,40=1/2;
 3/5=16,6=1,7=10,11=2,25=1,30=1,71=1,74=-55/1,2,3;
 4//1;
 5/5=2,38=5/2;
 6/7=2,8=2,9=2,10=2,28=1,40=1/1,7;
 7//1,2,3,16;
 1/18=20,19=15,26=3/3(2);
 2/9=110/2;
 99//99;
 2/9=110/2;
 3/5=16,6=1,7=10,11=2,25=1,30=1,71=1,74=-55/1,2,3;
 4/5=5,16=3,69=1/1;
 5/5=2,38=5/2;
 7//1,2,3,16;
 1/18=20,19=15,26=3/3(-5);
 2/9=110/2;
 6/7=2,8=2,9=2,10=2,19=2,28=1,40=1/1,7;
 99/9=1/99;
 ------------------
 3-CHO_benzoic-acid
 ------------------
 Symbolic Z-matrix:
 Charge =  0 Multiplicity = 1
 C                    -1.8877   -0.3264   -0.5796 
 C                    -1.5747   -1.1243   -1.6116 
 C                    -0.2936   -1.4176   -1.8779 
 C                     0.6903   -0.9132   -1.111 
 C                     0.3633   -0.113    -0.0772 
 C                    -0.9201    0.1897    0.2014 
 C                    -1.2207    1.0037    1.2561 
 O                    -2.3578    1.3071    1.5497 
 O                    -0.2668    1.5374    2.0592 
 C                     1.9887   -1.216    -1.3882 
 O                     2.9564   -0.8246   -0.7732 
 H                    -2.9564   -0.118    -0.4059 
 H                    -2.3754   -1.5421   -2.2456 
 H                    -0.078    -2.0774   -2.7356 
 H                     1.1645    0.3032    0.5547 
 H                    -0.7061    2.0774    2.7356 
 H                     2.1453   -1.8869   -2.2663 
 

 GradGradGradGradGradGradGradGradGradGradGradGradGradGradGradGradGradGrad
 Berny optimization.
 Initialization pass.
                           ----------------------------
                           !    Initial Parameters    !
                           ! (Angstroms and Degrees)  !
 --------------------------                            --------------------------
 ! Name  Definition              Value          Derivative Info.                !
 --------------------------------------------------------------------------------
 ! R1    R(1,2)                  1.3415         estimate D2E/DX2                !
 ! R2    R(1,6)                  1.3463         estimate D2E/DX2                !
 ! R3    R(1,12)                 1.1026         estimate D2E/DX2                !
 ! R4    R(2,3)                  1.341          estimate D2E/DX2                !
 ! R5    R(2,13)                 1.1035         estimate D2E/DX2                !
 ! R6    R(3,4)                  1.3456         estimate D2E/DX2                !
 ! R7    R(3,14)                 1.1034         estimate D2E/DX2                !
 ! R8    R(4,5)                  1.3476         estimate D2E/DX2                !
 ! R9    R(4,10)                 1.3618         estimate D2E/DX2                !
 ! R10   R(5,6)                  1.3477         estimate D2E/DX2                !
 ! R11   R(5,15)                 1.102          estimate D2E/DX2                !
 ! R12   R(6,7)                  1.3658         estimate D2E/DX2                !
 ! R13   R(7,8)                  1.213          estimate D2E/DX2                !
 ! R14   R(7,9)                  1.3564         estimate D2E/DX2                !
 ! R15   R(9,16)                 0.9706         estimate D2E/DX2                !
 ! R16   R(10,11)                1.2116         estimate D2E/DX2                !
 ! R17   R(10,17)                1.1161         estimate D2E/DX2                !
 ! A1    A(2,1,6)              120.4363         estimate D2E/DX2                !
 ! A2    A(2,1,12)             117.3714         estimate D2E/DX2                !
 ! A3    A(6,1,12)             122.1924         estimate D2E/DX2                !
 ! A4    A(1,2,3)              120.3825         estimate D2E/DX2                !
 ! A5    A(1,2,13)             119.8606         estimate D2E/DX2                !
 ! A6    A(3,2,13)             119.7568         estimate D2E/DX2                !
 ! A7    A(2,3,4)              120.2247         estimate D2E/DX2                !
 ! A8    A(2,3,14)             118.1537         estimate D2E/DX2                !
 ! A9    A(4,3,14)             121.6216         estimate D2E/DX2                !
 ! A10   A(3,4,5)              118.8412         estimate D2E/DX2                !
 ! A11   A(3,4,10)             119.8556         estimate D2E/DX2                !
 ! A12   A(5,4,10)             121.3032         estimate D2E/DX2                !
 ! A13   A(4,5,6)              121.5355         estimate D2E/DX2                !
 ! A14   A(4,5,15)             119.1914         estimate D2E/DX2                !
 ! A15   A(6,5,15)             119.2731         estimate D2E/DX2                !
 ! A16   A(1,6,5)              118.5798         estimate D2E/DX2                !
 ! A17   A(1,6,7)              121.2158         estimate D2E/DX2                !
 ! A18   A(5,6,7)              120.2044         estimate D2E/DX2                !
 ! A19   A(6,7,8)              122.8426         estimate D2E/DX2                !
 ! A20   A(6,7,9)              122.477          estimate D2E/DX2                !
 ! A21   A(8,7,9)              114.6804         estimate D2E/DX2                !
 ! A22   A(7,9,16)             108.2537         estimate D2E/DX2                !
 ! A23   A(4,10,11)            125.9021         estimate D2E/DX2                !
 ! A24   A(4,10,17)            115.3152         estimate D2E/DX2                !
 ! A25   A(11,10,17)           118.7827         estimate D2E/DX2                !
 ! D1    D(6,1,2,3)             -0.0011         estimate D2E/DX2                !
 ! D2    D(6,1,2,13)          -179.9976         estimate D2E/DX2                !
 ! D3    D(12,1,2,3)           179.9946         estimate D2E/DX2                !
 ! D4    D(12,1,2,13)           -0.0019         estimate D2E/DX2                !
 ! D5    D(2,1,6,5)              0.0013         estimate D2E/DX2                !
 ! D6    D(2,1,6,7)           -179.9982         estimate D2E/DX2                !
 ! D7    D(12,1,6,5)          -179.9942         estimate D2E/DX2                !
 ! D8    D(12,1,6,7)             0.0063         estimate D2E/DX2                !
 ! D9    D(1,2,3,4)             -0.0019         estimate D2E/DX2                !
 ! D10   D(1,2,3,14)          -179.9955         estimate D2E/DX2                !
 ! D11   D(13,2,3,4)           179.9945         estimate D2E/DX2                !
 ! D12   D(13,2,3,14)            0.001          estimate D2E/DX2                !
 ! D13   D(2,3,4,5)              0.0047         estimate D2E/DX2                !
 ! D14   D(2,3,4,10)           179.9979         estimate D2E/DX2                !
 ! D15   D(14,3,4,5)           179.998          estimate D2E/DX2                !
 ! D16   D(14,3,4,10)           -0.0087         estimate D2E/DX2                !
 ! D17   D(3,4,5,6)             -0.0045         estimate D2E/DX2                !
 ! D18   D(3,4,5,15)           179.9953         estimate D2E/DX2                !
 ! D19   D(10,4,5,6)          -179.9977         estimate D2E/DX2                !
 ! D20   D(10,4,5,15)            0.0021         estimate D2E/DX2                !
 ! D21   D(3,4,10,11)         -179.9964         estimate D2E/DX2                !
 ! D22   D(3,4,10,17)            0.0048         estimate D2E/DX2                !
 ! D23   D(5,4,10,11)           -0.0033         estimate D2E/DX2                !
 ! D24   D(5,4,10,17)          179.9979         estimate D2E/DX2                !
 ! D25   D(4,5,6,1)              0.0015         estimate D2E/DX2                !
 ! D26   D(4,5,6,7)           -179.999          estimate D2E/DX2                !
 ! D27   D(15,5,6,1)          -179.9982         estimate D2E/DX2                !
 ! D28   D(15,5,6,7)             0.0013         estimate D2E/DX2                !
 ! D29   D(1,6,7,8)             -0.0045         estimate D2E/DX2                !
 ! D30   D(1,6,7,9)           -179.9998         estimate D2E/DX2                !
 ! D31   D(5,6,7,8)            179.996          estimate D2E/DX2                !
 ! D32   D(5,6,7,9)              0.0007         estimate D2E/DX2                !
 ! D33   D(6,7,9,16)           179.9992         estimate D2E/DX2                !
 ! D34   D(8,7,9,16)             0.0035         estimate D2E/DX2                !
 --------------------------------------------------------------------------------
 Trust Radius=3.00D-01 FncErr=1.00D-07 GrdErr=1.00D-06 EigMax=2.50D+02 EigMin=1.00D-04
 Number of steps in this run=     86 maximum allowed number of steps=    102.
 GradGradGradGradGradGradGradGradGradGradGradGradGradGradGradGradGradGrad

                          Input orientation:                          
 ---------------------------------------------------------------------
 Center     Atomic      Atomic             Coordinates (Angstroms)
 Number     Number       Type             X           Y           Z
 ---------------------------------------------------------------------
      1          6           0       -1.887700   -0.326400   -0.579600
      2          6           0       -1.574700   -1.124300   -1.611600
      3          6           0       -0.293600   -1.417600   -1.877900
      4          6           0        0.690300   -0.913200   -1.111000
      5          6           0        0.363300   -0.113000   -0.077200
      6          6           0       -0.920100    0.189700    0.201400
      7          6           0       -1.220700    1.003700    1.256100
      8          8           0       -2.357800    1.307100    1.549700
      9          8           0       -0.266800    1.537400    2.059200
     10          6           0        1.988700   -1.216000   -1.388200
     11          8           0        2.956400   -0.824600   -0.773200
     12          1           0       -2.956400   -0.118000   -0.405900
     13          1           0       -2.375400   -1.542100   -2.245600
     14          1           0       -0.078000   -2.077400   -2.735600
     15          1           0        1.164500    0.303200    0.554700
     16          1           0       -0.706100    2.077400    2.735600
     17          1           0        2.145300   -1.886900   -2.266300
 ---------------------------------------------------------------------
                    Distance matrix (angstroms):
                    1          2          3          4          5
     1  C    0.000000
     2  C    1.341506   0.000000
     3  C    2.327543   1.340954   0.000000
     4  C    2.696814   2.329246   1.345591   0.000000
     5  C    2.316235   2.670759   2.318624   1.347587   0.000000
     6  C    1.346317   2.332824   2.701741   2.352057   1.347724
     7  C    2.363017   3.588510   4.067452   3.595774   2.352395
     8  O    2.724561   4.064329   4.840801   4.615189   3.473884
     9  O    3.614462   4.719112   4.922753   4.119666   2.772192
    10  C    4.058534   3.571573   2.342934   1.361753   2.361621
    11  O    4.873499   4.617749   3.483463   2.292852   2.777581
    12  H    1.102598   2.091757   3.308511   3.798412   3.335937
    13  H    2.119277   1.103464   2.117686   3.328866   3.774224
    14  H    3.315019   2.100449   1.103390   2.141255   3.334772
    15  H    3.316468   3.772775   3.317341   2.116377   1.102017
    16  H    4.262040   5.468409   5.802548   5.068526   3.722004
    17  H    4.641681   3.853387   2.513828   2.097578   3.333827
                    6          7          8          9         10
     6  C    0.000000
     7  C    1.365778   0.000000
     8  O    2.265718   1.212951   0.000000
     9  O    2.386319   1.356367   2.164465   0.000000
    10  C    3.600547   4.713771   5.821456   4.955104   0.000000
    11  O    4.123821   4.990882   6.179056   4.898015   1.211554
    12  H    2.147093   2.652001   2.492710   4.006372   5.159896
    13  H    3.332392   4.480662   4.745793   5.697440   4.459467
    14  H    3.804582   5.170359   5.917442   6.007706   2.613187
    15  H    2.117371   2.582991   3.795318   2.415655   2.600410
    16  H    3.167235   1.899096   2.174358   0.970619   5.925720
    17  H    4.449549   5.665053   6.711289   6.021130   1.116105
                   11         12         13         14         15
    11  O    0.000000
    12  H    5.966188   0.000000
    13  H    5.577711   2.397940   0.000000
    14  H    3.824671   4.189503   2.409293   0.000000
    15  H    2.499231   4.252291   4.876239   4.247015   0.000000
    16  H    5.843560   4.444396   6.379631   6.898616   3.376871
    17  H    2.003924   5.711168   4.533877   2.280262   3.703586
                   16         17
    16  H    0.000000
    17  H    6.990362   0.000000
 Stoichiometry    C8H6O3
 Framework group  C1[X(C8H6O3)]
 Deg. of freedom    45
 Full point group                 C1      NOp   1
 Largest Abelian subgroup         C1      NOp   1
 Largest concise Abelian subgroup C1      NOp   1
                         Standard orientation:                         
 ---------------------------------------------------------------------
 Center     Atomic      Atomic             Coordinates (Angstroms)
 Number     Number       Type             X           Y           Z
 ---------------------------------------------------------------------
      1          6           0       -0.735062    1.563575   -0.000011
      2          6           0        0.463968    2.165210   -0.000030
      3          6           0        1.588951    1.435434   -0.000022
      4          6           0        1.524468    0.091390    0.000043
      5          6           0        0.314240   -0.501349    0.000005
      6          6           0       -0.824059    0.220203   -0.000006
      7          6           0       -2.036337   -0.408868   -0.000024
      8          8           0       -3.089609    0.192685    0.000036
      9          8           0       -2.155767   -1.759966   -0.000016
     10          6           0        2.671649   -0.642330    0.000008
     11          8           0        2.741386   -1.851875   -0.000003
     12          1           0       -1.627279    2.211395    0.000075
     13          1           0        0.525847    3.266938    0.000007
     14          1           0        2.555164    1.968259    0.000037
     15          1           0        0.254702   -1.601757   -0.000021
     16          1           0       -3.100733   -1.981645   -0.000019
     17          1           0        3.617308   -0.049523    0.000007
 ---------------------------------------------------------------------
 Rotational constants (GHZ):           2.0071763           0.8538550           0.5990279
 Standard basis: Aug-CC-pVTZ (5D, 7F)
 There are   755 symmetry adapted cartesian basis functions of A   symmetry.
 There are   644 symmetry adapted basis functions of A   symmetry.
   644 basis functions,   954 primitive gaussians,   755 cartesian basis functions
    39 alpha electrons       39 beta electrons
       nuclear repulsion energy       569.6577241223 Hartrees.
 NAtoms=   17 NActive=   17 NUniq=   17 SFac= 1.00D+00 NAtFMM=   60 NAOKFM=F Big=F
 Integral buffers will be    131072 words long.
 Raffenetti 2 integral format.
 Two-electron integral symmetry is turned on.
 One-electron integrals computed using PRISM.
 NBasis=   644 RedAO= T EigKep=  1.51D-06  NBF=   644
 NBsUse=   641 1.00D-06 EigRej=  8.82D-07 NBFU=   641
 ExpMin= 2.53D-02 ExpMax= 1.53D+04 ExpMxC= 5.22D+02 IAcc=3 IRadAn=         5 AccDes= 0.00D+00
 Harris functional with IExCor= 1009 and IRadAn=       5 diagonalized for initial guess.
 HarFok:  IExCor= 1009 AccDes= 0.00D+00 IRadAn=         5 IDoV= 1 UseB2=F ITyADJ=14
 ICtDFT=  3500011 ScaDFX=  1.000000  1.000000  1.000000  1.000000
 FoFCou: FMM=F IPFlag=           0 FMFlag=      100000 FMFlg1=           0
         NFxFlg=           0 DoJE=T BraDBF=F KetDBF=T FulRan=T
         wScrn=  0.000000 ICntrl=       500 IOpCl=  0 I1Cent=   200000004 NGrid=           0
         NMat0=    1 NMatS0=      1 NMatT0=    0 NMatD0=    1 NMtDS0=    0 NMtDT0=    0
 Petite list used in FoFCou.
 Requested convergence on RMS density matrix=1.00D-08 within 128 cycles.
 Requested convergence on MAX density matrix=1.00D-06.
 Requested convergence on             energy=1.00D-06.
 No special actions if energy rises.
 SCF Done:  E(RM062X) =  -534.105162359     A.U. after   14 cycles
            NFock= 14  Conv=0.58D-08     -V/T= 2.0028

 **********************************************************************

            Population analysis using the SCF Density.

 **********************************************************************

 Orbital symmetries:
       Occupied  (A) (A) (A) (A) (A) (A) (A) (A) (A) (A) (A) (A)
                 (A) (A) (A) (A) (A) (A) (A) (A) (A) (A) (A) (A)
                 (A) (A) (A) (A) (A) (A) (A) (A) (A) (A) (A) (A)
                 (A) (A) (A)
       Virtual   (A) (A) (A) (A) (A) (A) (A) (A) (A) (A) (A) (A)
                 (A) (A) (A) (A) (A) (A) (A) (A) (A) (A) (A) (A)
                 (A) (A) (A) (A) (A) (A) (A) (A) (A) (A) (A) (A)
                 (A) (A) (A) (A) (A) (A) (A) (A) (A) (A) (A) (A)
                 (A) (A) (A) (A) (A) (A) (A) (A) (A) (A) (A) (A)
                 (A) (A) (A) (A) (A) (A) (A) (A) (A) (A) (A) (A)
                 (A) (A) (A) (A) (A) (A) (A) (A) (A) (A) (A) (A)
                 (A) (A) (A) (A) (A) (A) (A) (A) (A) (A) (A) (A)
                 (A) (A) (A) (A) (A) (A) (A) (A) (A) (A) (A) (A)
                 (A) (A) (A) (A) (A) (A) (A) (A) (A) (A) (A) (A)
                 (A) (A) (A) (A) (A) (A) (A) (A) (A) (A) (A) (A)
                 (A) (A) (A) (A) (A) (A) (A) (A) (A) (A) (A) (A)
                 (A) (A) (A) (A) (A) (A) (A) (A) (A) (A) (A) (A)
                 (A) (A) (A) (A) (A) (A) (A) (A) (A) (A) (A) (A)
                 (A) (A) (A) (A) (A) (A) (A) (A) (A) (A) (A) (A)
                 (A) (A) (A) (A) (A) (A) (A) (A) (A) (A) (A) (A)
                 (A) (A) (A) (A) (A) (A) (A) (A) (A) (A) (A) (A)
                 (A) (A) (A) (A) (A) (A) (A) (A) (A) (A) (A) (A)
                 (A) (A) (A) (A) (A) (A) (A) (A) (A) (A) (A) (A)
                 (A) (A) (A) (A) (A) (A) (A) (A) (A) (A) (A) (A)
                 (A) (A) (A) (A) (A) (A) (A) (A) (A) (A) (A) (A)
                 (A) (A) (A) (A) (A) (A) (A) (A) (A) (A) (A) (A)
                 (A) (A) (A) (A) (A) (A) (A) (A) (A) (A) (A) (A)
                 (A) (A) (A) (A) (A) (A) (A) (A) (A) (A) (A) (A)
                 (A) (A) (A) (A) (A) (A) (A) (A) (A) (A) (A) (A)
                 (A) (A) (A) (A) (A) (A) (A) (A) (A) (A) (A) (A)
                 (A) (A) (A) (A) (A) (A) (A) (A) (A) (A) (A) (A)
                 (A) (A) (A) (A) (A) (A) (A) (A) (A) (A) (A) (A)
                 (A) (A) (A) (A) (A) (A) (A) (A) (A) (A) (A) (A)
                 (A) (A) (A) (A) (A) (A) (A) (A) (A) (A) (A) (A)
                 (A) (A) (A) (A) (A) (A) (A) (A) (A) (A) (A) (A)
                 (A) (A) (A) (A) (A) (A) (A) (A) (A) (A) (A) (A)
                 (A) (A) (A) (A) (A) (A) (A) (A) (A) (A) (A) (A)
                 (A) (A) (A) (A) (A) (A) (A) (A) (A) (A) (A) (A)
                 (A) (A) (A) (A) (A) (A) (A) (A) (A) (A) (A) (A)
                 (A) (A) (A) (A) (A) (A) (A) (A) (A) (A) (A) (A)
                 (A) (A) (A) (A) (A) (A) (A) (A) (A) (A) (A) (A)
                 (A) (A) (A) (A) (A) (A) (A) (A) (A) (A) (A) (A)
                 (A) (A) (A) (A) (A) (A) (A) (A) (A) (A) (A) (A)
                 (A) (A) (A) (A) (A) (A) (A) (A) (A) (A) (A) (A)
                 (A) (A) (A) (A) (A) (A) (A) (A) (A) (A) (A) (A)
                 (A) (A) (A) (A) (A) (A) (A) (A) (A) (A) (A) (A)
                 (A) (A) (A) (A) (A) (A) (A) (A) (A) (A) (A) (A)
                 (A) (A) (A) (A) (A) (A) (A) (A) (A) (A) (A) (A)
                 (A) (A) (A) (A) (A) (A) (A) (A) (A) (A) (A) (A)
                 (A) (A) (A) (A) (A) (A) (A) (A) (A) (A) (A) (A)
                 (A) (A) (A) (A) (A) (A) (A) (A) (A) (A) (A) (A)
                 (A) (A) (A) (A) (A) (A) (A) (A) (A) (A) (A) (A)
                 (A) (A) (A) (A) (A) (A) (A) (A) (A) (A) (A) (A)
                 (A) (A) (A) (A) (A) (A) (A) (A) (A) (A) (A) (A)
                 (A) (A)
 The electronic state is 1-A.
 Alpha  occ. eigenvalues --  -19.67486 -19.63140 -19.61715 -10.68197 -10.63052
 Alpha  occ. eigenvalues --  -10.57858 -10.57575 -10.57390 -10.56942 -10.56563
 Alpha  occ. eigenvalues --  -10.55900  -1.24789  -1.18215  -1.13883  -1.03728
 Alpha  occ. eigenvalues --   -0.93619  -0.90777  -0.79308  -0.78447  -0.71827
 Alpha  occ. eigenvalues --   -0.66623  -0.64571  -0.60216  -0.57818  -0.57290
 Alpha  occ. eigenvalues --   -0.55988  -0.55584  -0.52609  -0.51963  -0.51603
 Alpha  occ. eigenvalues --   -0.49238  -0.46311  -0.45282  -0.43837  -0.40589
 Alpha  occ. eigenvalues --   -0.36737  -0.35559  -0.34917  -0.34751
 Alpha virt. eigenvalues --   -0.05857  -0.04168  -0.01271  -0.00159   0.00550
 Alpha virt. eigenvalues --    0.01729   0.02008   0.02440   0.03203   0.03945
 Alpha virt. eigenvalues --    0.04820   0.04983   0.05673   0.05891   0.05925
 Alpha virt. eigenvalues --    0.07233   0.07646   0.07668   0.07936   0.08895
 Alpha virt. eigenvalues --    0.08982   0.09026   0.09334   0.09903   0.10051
 Alpha virt. eigenvalues --    0.10692   0.11339   0.11980   0.12138   0.12356
 Alpha virt. eigenvalues --    0.13101   0.13724   0.13783   0.14936   0.15352
 Alpha virt. eigenvalues --    0.15813   0.16436   0.17791   0.17942   0.18860
 Alpha virt. eigenvalues --    0.18866   0.19370   0.19468   0.20005   0.20377
 Alpha virt. eigenvalues --    0.20405   0.20701   0.21035   0.22094   0.22674
 Alpha virt. eigenvalues --    0.22894   0.22990   0.23482   0.24343   0.24883
 Alpha virt. eigenvalues --    0.25258   0.25461   0.25956   0.26349   0.27369
 Alpha virt. eigenvalues --    0.27471   0.28335   0.28853   0.29389   0.29940
 Alpha virt. eigenvalues --    0.30256   0.31288   0.31721   0.32192   0.32280
 Alpha virt. eigenvalues --    0.33086   0.33401   0.33481   0.34255   0.34686
 Alpha virt. eigenvalues --    0.35180   0.35418   0.36432   0.36435   0.37008
 Alpha virt. eigenvalues --    0.37376   0.37458   0.38043   0.38431   0.38668
 Alpha virt. eigenvalues --    0.39169   0.39890   0.40019   0.41211   0.41384
 Alpha virt. eigenvalues --    0.41762   0.42254   0.43018   0.43260   0.43548
 Alpha virt. eigenvalues --    0.44392   0.44846   0.45291   0.45720   0.47702
 Alpha virt. eigenvalues --    0.48127   0.48407   0.49949   0.50484   0.50729
 Alpha virt. eigenvalues --    0.51538   0.51715   0.53163   0.53491   0.54463
 Alpha virt. eigenvalues --    0.54866   0.55332   0.55987   0.56403   0.56568
 Alpha virt. eigenvalues --    0.57400   0.58901   0.58920   0.60660   0.61081
 Alpha virt. eigenvalues --    0.61447   0.61730   0.62615   0.63764   0.64271
 Alpha virt. eigenvalues --    0.64607   0.65672   0.65870   0.67586   0.68151
 Alpha virt. eigenvalues --    0.68303   0.68463   0.69657   0.69742   0.70779
 Alpha virt. eigenvalues --    0.71377   0.71700   0.73070   0.73239   0.74187
 Alpha virt. eigenvalues --    0.74730   0.75023   0.75086   0.76133   0.76604
 Alpha virt. eigenvalues --    0.77267   0.77631   0.77752   0.78119   0.78491
 Alpha virt. eigenvalues --    0.78588   0.78944   0.80160   0.80186   0.80890
 Alpha virt. eigenvalues --    0.82020   0.82731   0.83622   0.84402   0.84988
 Alpha virt. eigenvalues --    0.85200   0.85810   0.86750   0.87544   0.87617
 Alpha virt. eigenvalues --    0.88033   0.88530   0.89268   0.89337   0.90262
 Alpha virt. eigenvalues --    0.90765   0.91485   0.91728   0.91990   0.92247
 Alpha virt. eigenvalues --    0.93052   0.93161   0.93827   0.95106   0.95531
 Alpha virt. eigenvalues --    0.96869   0.97132   0.97377   0.97480   0.98682
 Alpha virt. eigenvalues --    0.99010   0.99211   1.00420   1.01600   1.01604
 Alpha virt. eigenvalues --    1.02465   1.03100   1.04117   1.04441   1.05624
 Alpha virt. eigenvalues --    1.05874   1.06438   1.06971   1.07476   1.07579
 Alpha virt. eigenvalues --    1.09352   1.10042   1.10148   1.11147   1.11811
 Alpha virt. eigenvalues --    1.12137   1.14528   1.14782   1.15583   1.16218
 Alpha virt. eigenvalues --    1.16225   1.17755   1.18433   1.19528   1.19589
 Alpha virt. eigenvalues --    1.19921   1.20707   1.21461   1.22685   1.23287
 Alpha virt. eigenvalues --    1.23977   1.25260   1.26406   1.28451   1.29797
 Alpha virt. eigenvalues --    1.31214   1.31909   1.31979   1.33760   1.34269
 Alpha virt. eigenvalues --    1.34531   1.34949   1.37364   1.37620   1.37699
 Alpha virt. eigenvalues --    1.39658   1.39661   1.40223   1.41821   1.43229
 Alpha virt. eigenvalues --    1.44197   1.46377   1.46745   1.47517   1.47893
 Alpha virt. eigenvalues --    1.48458   1.49070   1.49857   1.50051   1.52513
 Alpha virt. eigenvalues --    1.53586   1.54093   1.54696   1.56730   1.57595
 Alpha virt. eigenvalues --    1.58494   1.59092   1.61247   1.61576   1.62588
 Alpha virt. eigenvalues --    1.63394   1.65541   1.65899   1.66760   1.66995
 Alpha virt. eigenvalues --    1.67730   1.67906   1.69179   1.69642   1.70336
 Alpha virt. eigenvalues --    1.70757   1.72514   1.73489   1.73594   1.74091
 Alpha virt. eigenvalues --    1.77132   1.77916   1.78029   1.79412   1.80318
 Alpha virt. eigenvalues --    1.81187   1.83070   1.83612   1.84868   1.87541
 Alpha virt. eigenvalues --    1.87962   1.88603   1.89296   1.90193   1.90307
 Alpha virt. eigenvalues --    1.91791   1.91820   1.92164   1.93372   1.95491
 Alpha virt. eigenvalues --    1.96771   1.97029   1.99911   2.00536   2.02253
 Alpha virt. eigenvalues --    2.02838   2.03104   2.03386   2.03571   2.05492
 Alpha virt. eigenvalues --    2.09546   2.10228   2.11311   2.13476   2.15253
 Alpha virt. eigenvalues --    2.16460   2.17354   2.17668   2.17677   2.20445
 Alpha virt. eigenvalues --    2.21459   2.22123   2.23753   2.25017   2.25361
 Alpha virt. eigenvalues --    2.26685   2.27371   2.29969   2.30385   2.31579
 Alpha virt. eigenvalues --    2.31885   2.32630   2.35593   2.36367   2.37688
 Alpha virt. eigenvalues --    2.39464   2.41284   2.41676   2.41736   2.43168
 Alpha virt. eigenvalues --    2.43636   2.45211   2.48442   2.48563   2.51074
 Alpha virt. eigenvalues --    2.51338   2.53686   2.55351   2.56408   2.56648
 Alpha virt. eigenvalues --    2.58964   2.60901   2.62435   2.64463   2.65402
 Alpha virt. eigenvalues --    2.66788   2.67340   2.68589   2.70961   2.74048
 Alpha virt. eigenvalues --    2.75287   2.75703   2.76610   2.79699   2.81158
 Alpha virt. eigenvalues --    2.82026   2.85113   2.86290   2.89372   2.89380
 Alpha virt. eigenvalues --    2.92260   2.92315   2.94703   2.97599   2.98437
 Alpha virt. eigenvalues --    2.99560   2.99591   3.00505   3.02265   3.02340
 Alpha virt. eigenvalues --    3.04883   3.06793   3.08331   3.10491   3.10775
 Alpha virt. eigenvalues --    3.11738   3.12199   3.13535   3.13918   3.16368
 Alpha virt. eigenvalues --    3.17078   3.18459   3.21033   3.21945   3.22790
 Alpha virt. eigenvalues --    3.23717   3.24422   3.24511   3.25701   3.27087
 Alpha virt. eigenvalues --    3.27698   3.28057   3.29215   3.31053   3.33162
 Alpha virt. eigenvalues --    3.35136   3.36074   3.37121   3.37147   3.39084
 Alpha virt. eigenvalues --    3.40893   3.43619   3.44486   3.45302   3.46135
 Alpha virt. eigenvalues --    3.46485   3.47666   3.48692   3.52960   3.53348
 Alpha virt. eigenvalues --    3.55263   3.55362   3.56012   3.58024   3.58446
 Alpha virt. eigenvalues --    3.61792   3.61972   3.62691   3.64514   3.64949
 Alpha virt. eigenvalues --    3.65014   3.66088   3.69247   3.70708   3.71123
 Alpha virt. eigenvalues --    3.72387   3.73522   3.73922   3.75799   3.77524
 Alpha virt. eigenvalues --    3.78681   3.80997   3.80998   3.83416   3.83702
 Alpha virt. eigenvalues --    3.85388   3.86436   3.86827   3.88178   3.88597
 Alpha virt. eigenvalues --    3.88942   3.92475   3.92769   3.94181   3.95064
 Alpha virt. eigenvalues --    3.95997   3.96740   3.98037   3.99454   4.01117
 Alpha virt. eigenvalues --    4.01941   4.01966   4.04335   4.04969   4.05661
 Alpha virt. eigenvalues --    4.06660   4.08775   4.09118   4.11720   4.12687
 Alpha virt. eigenvalues --    4.14665   4.15180   4.16842   4.17611   4.19279
 Alpha virt. eigenvalues --    4.22713   4.23192   4.26218   4.26350   4.30565
 Alpha virt. eigenvalues --    4.32517   4.32539   4.33724   4.36403   4.37187
 Alpha virt. eigenvalues --    4.37751   4.39561   4.39835   4.41736   4.44009
 Alpha virt. eigenvalues --    4.44730   4.48660   4.51259   4.52005   4.52789
 Alpha virt. eigenvalues --    4.57899   4.59026   4.59569   4.60842   4.63190
 Alpha virt. eigenvalues --    4.66011   4.66207   4.68744   4.69432   4.69825
 Alpha virt. eigenvalues --    4.71868   4.72934   4.75928   4.76163   4.78916
 Alpha virt. eigenvalues --    4.79022   4.81280   4.81968   4.82298   4.87066
 Alpha virt. eigenvalues --    4.90811   4.92540   4.93433   4.95129   4.96308
 Alpha virt. eigenvalues --    4.99396   4.99601   5.00720   5.04559   5.05719
 Alpha virt. eigenvalues --    5.06334   5.07954   5.10471   5.12334   5.14966
 Alpha virt. eigenvalues --    5.20836   5.26353   5.29494   5.33799   5.37316
 Alpha virt. eigenvalues --    5.39733   5.41047   5.43592   5.49132   5.53517
 Alpha virt. eigenvalues --    5.54575   5.59279   5.76216   5.83132   5.86211
 Alpha virt. eigenvalues --    5.87879   5.93418   5.94873   6.04165   6.05818
 Alpha virt. eigenvalues --    6.07246   6.18997   6.21939   6.23344   6.23557
 Alpha virt. eigenvalues --    6.26147   6.32054   6.32763   6.36739   6.38087
 Alpha virt. eigenvalues --    6.39945   6.42927   6.44896   6.51140   6.51509
 Alpha virt. eigenvalues --    6.54659   6.56727   6.61997   6.68253   6.69536
 Alpha virt. eigenvalues --    6.71051   6.72911   6.75234   6.79243   6.79950
 Alpha virt. eigenvalues --    6.82709   6.85848   6.86934   6.88524   6.90767
 Alpha virt. eigenvalues --    6.97350   7.08052   7.09356   7.12634   7.14783
 Alpha virt. eigenvalues --    7.18032   7.19888   7.30337   7.31700   7.36289
 Alpha virt. eigenvalues --    7.41491   7.44454   7.52503   7.71433   7.90371
 Alpha virt. eigenvalues --    8.04996  15.23615  15.79664  16.01488  17.51978
 Alpha virt. eigenvalues --   18.03877  18.13606  18.83172  19.73609  20.38115
 Alpha virt. eigenvalues --   20.70943  21.06498
          Condensed to atoms (all electrons):
               1          2          3          4          5          6
     1  C    8.192686  -0.131282   0.148310  -0.498287   0.426572  -1.134873
     2  C   -0.131282   7.248758  -0.462014   0.109504  -0.543026   0.100129
     3  C    0.148310  -0.462014   8.311772  -0.726249   0.417760  -0.584425
     4  C   -0.498287   0.109504  -0.726249   7.049365  -0.992511   0.130304
     5  C    0.426572  -0.543026   0.417760  -0.992511   9.138514  -0.678854
     6  C   -1.134873   0.100129  -0.584425   0.130304  -0.678854   7.274010
     7  C   -0.455058   0.003997   0.125869   0.057833  -0.667264  -0.466680
     8  O    0.119013  -0.043699   0.015719  -0.041653   0.086528  -0.270718
     9  O    0.022319  -0.016031   0.011775  -0.035259  -0.081677   0.075563
    10  C    0.107306   0.105530  -0.795461  -0.207141  -0.679237   0.035259
    11  O    0.009064  -0.020281   0.023083   0.122769   0.000666  -0.001745
    12  H    0.161341  -0.311649   0.100187  -0.015282  -0.002035  -0.177180
    13  H   -0.191581   0.556798  -0.192873  -0.009889   0.013186   0.006450
    14  H    0.086990  -0.391380   0.285626  -0.107349   0.053903  -0.042226
    15  H    0.046027  -0.021649   0.062984  -0.389442   0.322120  -0.299867
    16  H   -0.027290   0.004139  -0.002313   0.008779  -0.012250   0.018335
    17  H    0.001881  -0.000551   0.022571  -0.236220   0.016836   0.000434
               7          8          9         10         11         12
     1  C   -0.455058   0.119013   0.022319   0.107306   0.009064   0.161341
     2  C    0.003997  -0.043699  -0.016031   0.105530  -0.020281  -0.311649
     3  C    0.125869   0.015719   0.011775  -0.795461   0.023083   0.100187
     4  C    0.057833  -0.041653  -0.035259  -0.207141   0.122769  -0.015282
     5  C   -0.667264   0.086528  -0.081677  -0.679237   0.000666  -0.002035
     6  C   -0.466680  -0.270718   0.075563   0.035259  -0.001745  -0.177180
     7  C    7.122526  -0.059637  -0.020485  -0.069071   0.016495   0.203327
     8  O   -0.059637   9.358449  -0.114122   0.005595  -0.000290  -0.028475
     9  O   -0.020485  -0.114122   8.643498   0.011599  -0.001519   0.002291
    10  C   -0.069071   0.005595   0.011599   7.573176  -0.205098  -0.009547
    11  O    0.016495  -0.000290  -0.001519  -0.205098   9.304101   0.000641
    12  H    0.203327  -0.028475   0.002291  -0.009547   0.000641   0.783610
    13  H    0.003131  -0.006694  -0.000493   0.017627  -0.001600  -0.009796
    14  H   -0.009686   0.001282   0.000107   0.080287   0.014464  -0.005403
    15  H    0.017997   0.008814  -0.051821  -0.039538  -0.019276  -0.000648
    16  H    0.087515  -0.106139   0.148499  -0.002666   0.000269  -0.000489
    17  H   -0.004405   0.000243   0.000704   0.452474  -0.323201  -0.000651
              13         14         15         16         17
     1  C   -0.191581   0.086990   0.046027  -0.027290   0.001881
     2  C    0.556798  -0.391380  -0.021649   0.004139  -0.000551
     3  C   -0.192873   0.285626   0.062984  -0.002313   0.022571
     4  C   -0.009889  -0.107349  -0.389442   0.008779  -0.236220
     5  C    0.013186   0.053903   0.322120  -0.012250   0.016836
     6  C    0.006450  -0.042226  -0.299867   0.018335   0.000434
     7  C    0.003131  -0.009686   0.017997   0.087515  -0.004405
     8  O   -0.006694   0.001282   0.008814  -0.106139   0.000243
     9  O   -0.000493   0.000107  -0.051821   0.148499   0.000704
    10  C    0.017627   0.080287  -0.039538  -0.002666   0.452474
    11  O   -0.001600   0.014464  -0.019276   0.000269  -0.323201
    12  H   -0.009796  -0.005403  -0.000648  -0.000489  -0.000651
    13  H    0.650256  -0.018523  -0.002103   0.000419   0.000315
    14  H   -0.018523   0.763613  -0.003696  -0.000179  -0.022458
    15  H   -0.002103  -0.003696   1.297474  -0.003910   0.016977
    16  H    0.000419  -0.000179  -0.003910   0.591328  -0.000140
    17  H    0.000315  -0.022458   0.016977  -0.000140   0.680216
 Mulliken charges:
               1
     1  C   -0.883139
     2  C   -0.187293
     3  C   -0.762320
     4  C    1.780729
     5  C   -0.819229
     6  C    2.016082
     7  C    0.113595
     8  O   -0.924216
     9  O   -0.594947
    10  C   -0.381094
    11  O   -0.918541
    12  H    0.309754
    13  H    0.185369
    14  H    0.314628
    15  H    0.059555
    16  H    0.296093
    17  H    0.394975
 Sum of Mulliken charges =   0.00000
 Mulliken charges with hydrogens summed into heavy atoms:
               1
     1  C   -0.573385
     2  C   -0.001924
     3  C   -0.447692
     4  C    1.780729
     5  C   -0.759674
     6  C    2.016082
     7  C    0.113595
     8  O   -0.924216
     9  O   -0.298854
    10  C    0.013881
    11  O   -0.918541
 Electronic spatial extent (au):  <R**2>=           1752.1408
 Charge=              0.0000 electrons
 Dipole moment (field-independent basis, Debye):
    X=              0.6617    Y=              2.9686    Z=              0.0000  Tot=              3.0414
 Quadrupole moment (field-independent basis, Debye-Ang):
   XX=            -67.2852   YY=            -60.8925   ZZ=            -63.1537
   XY=             14.2009   XZ=              0.0004   YZ=              0.0003
 Traceless Quadrupole moment (field-independent basis, Debye-Ang):
   XX=             -3.5080   YY=              2.8846   ZZ=              0.6234
   XY=             14.2009   XZ=              0.0004   YZ=              0.0003
 Octapole moment (field-independent basis, Debye-Ang**2):
  XXX=              2.1524  YYY=             14.6241  ZZZ=              0.0002  XYY=            -28.7855
  XXY=             -1.6125  XXZ=             -0.0004  XZZ=             -4.3164  YZZ=             -7.2172
  YYZ=              0.0009  XYZ=             -0.0002
 Hexadecapole moment (field-independent basis, Debye-Ang**3):
 XXXX=          -1510.7937 YYYY=           -659.2065 ZZZZ=            -63.5688 XXXY=            173.8940
 XXXZ=              0.0047 YYYX=             62.3381 YYYZ=              0.0025 ZZZX=             -0.0001
 ZZZY=              0.0006 XXYY=           -351.7398 XXZZ=           -254.1132 YYZZ=           -134.3895
 XXYZ=              0.0013 YYXZ=              0.0000 ZZXY=             -2.6828
 N-N= 5.696577241223D+02 E-N=-2.388011072812D+03  KE= 5.326087340499D+02
 ******************************Gaussian NBO Version 3.1******************************
             N A T U R A L   A T O M I C   O R B I T A L   A N D
          N A T U R A L   B O N D   O R B I T A L   A N A L Y S I S
 ******************************Gaussian NBO Version 3.1******************************
       /RESON  / : Allow strongly delocalized NBO set

 Analyzing the SCF density

 Job title: 3-CHO_benzoic-acid                                              

 Storage needed:   1246904 in NPA,   1661211 in NBO (********** available)
 GSVD:  LWork=       34552 too small for GESVD, short by      721910 words or      721910 for optimal perf.


 NATURAL POPULATIONS:  Natural atomic orbital occupancies 
                                                          
   NAO  Atom  No  lang   Type(AO)    Occupancy      Energy
 ----------------------------------------------------------
     1    C    1  S      Cor( 1S)     1.99908     -10.40579
     2    C    1  S      Val( 2S)     0.94638      -0.20246
     3    C    1  S      Ryd( 4S)     0.00134       1.96898
     4    C    1  S      Ryd( 5S)     0.00010       2.73960
     5    C    1  S      Ryd( 3S)     0.00002       1.85350
     6    C    1  px     Val( 2p)     1.15194      -0.09935
     7    C    1  px     Ryd( 4p)     0.00478       1.91633
     8    C    1  px     Ryd( 5p)     0.00008       2.29853
     9    C    1  px     Ryd( 3p)     0.00008       1.41826
    10    C    1  py     Val( 2p)     1.07493      -0.07362
    11    C    1  py     Ryd( 4p)     0.00406       1.81349
    12    C    1  py     Ryd( 5p)     0.00002       2.09082
    13    C    1  py     Ryd( 3p)     0.00004       1.34365
    14    C    1  pz     Val( 2p)     0.89696      -0.13542
    15    C    1  pz     Ryd( 4p)     0.00064       1.01438
    16    C    1  pz     Ryd( 5p)     0.00005       1.35763
    17    C    1  pz     Ryd( 3p)     0.00002       0.84344
    18    C    1  dxy    Ryd( 3d)     0.00178       2.53089
    19    C    1  dxy    Ryd( 5d)     0.00019       3.91624
    20    C    1  dxy    Ryd( 4d)     0.00009       3.56398
    21    C    1  dxz    Ryd( 3d)     0.00043       1.49261
    22    C    1  dxz    Ryd( 5d)     0.00002       3.19716
    23    C    1  dxz    Ryd( 4d)     0.00003       1.59487
    24    C    1  dyz    Ryd( 3d)     0.00026       1.38937
    25    C    1  dyz    Ryd( 5d)     0.00007       3.15558
    26    C    1  dyz    Ryd( 4d)     0.00002       1.60876
    27    C    1  dx2y2  Ryd( 4d)     0.00204       3.76944
    28    C    1  dx2y2  Ryd( 5d)     0.00024       4.22973
    29    C    1  dx2y2  Ryd( 3d)     0.00006       2.14473
    30    C    1  dz2    Ryd( 3d)     0.00098       1.88542
    31    C    1  dz2    Ryd( 4d)     0.00010       3.96157
    32    C    1  dz2    Ryd( 5d)     0.00005       4.24695
    33    C    1  f(0)   Ryd( 4f)     0.00008       1.46413
    34    C    1  f(0)   Ryd( 5f)     0.00009       3.38050
    35    C    1  f(C1)  Ryd( 4f)     0.00043       1.93484
    36    C    1  f(C1)  Ryd( 5f)     0.00018       3.60959
    37    C    1  f(S1)  Ryd( 4f)     0.00041       1.82373
    38    C    1  f(S1)  Ryd( 5f)     0.00018       3.55691
    39    C    1  f(C2)  Ryd( 4f)     0.00020       1.44116
    40    C    1  f(C2)  Ryd( 5f)     0.00002       3.44346
    41    C    1  f(S2)  Ryd( 4f)     0.00015       1.59553
    42    C    1  f(S2)  Ryd( 5f)     0.00004       3.38463
    43    C    1  f(C3)  Ryd( 4f)     0.00105       1.98057
    44    C    1  f(C3)  Ryd( 5f)     0.00019       4.24125
    45    C    1  f(S3)  Ryd( 4f)     0.00046       2.72045
    46    C    1  f(S3)  Ryd( 5f)     0.00015       4.02281
 
    47    C    2  S      Cor( 1S)     1.99913     -10.39774
    48    C    2  S      Val( 2S)     0.94731      -0.21164
    49    C    2  S      Ryd( 3S)     0.00150       1.86313
    50    C    2  S      Ryd( 5S)     0.00004       2.62845
    51    C    2  S      Ryd( 4S)     0.00001       2.09748
    52    C    2  px     Val( 2p)     1.06567      -0.08820
    53    C    2  px     Ryd( 5p)     0.00389       1.72416
    54    C    2  px     Ryd( 3p)     0.00006       0.94076
    55    C    2  px     Ryd( 4p)     0.00001       1.52115
    56    C    2  py     Val( 2p)     1.18580      -0.10842
    57    C    2  py     Ryd( 4p)     0.00502       1.69291
    58    C    2  py     Ryd( 3p)     0.00003       1.33607
    59    C    2  py     Ryd( 5p)     0.00004       1.96158
    60    C    2  pz     Val( 2p)     1.00223      -0.14443
    61    C    2  pz     Ryd( 4p)     0.00069       1.00204
    62    C    2  pz     Ryd( 3p)     0.00001       0.82361
    63    C    2  pz     Ryd( 5p)     0.00002       1.33287
    64    C    2  dxy    Ryd( 4d)     0.00220       3.39982
    65    C    2  dxy    Ryd( 5d)     0.00026       3.64580
    66    C    2  dxy    Ryd( 3d)     0.00005       2.02547
    67    C    2  dxz    Ryd( 3d)     0.00030       1.47889
    68    C    2  dxz    Ryd( 5d)     0.00001       2.75312
    69    C    2  dxz    Ryd( 4d)     0.00001       1.83555
    70    C    2  dyz    Ryd( 3d)     0.00027       1.42282
    71    C    2  dyz    Ryd( 5d)     0.00005       2.83598
    72    C    2  dyz    Ryd( 4d)     0.00002       1.58591
    73    C    2  dx2y2  Ryd( 3d)     0.00193       2.31086
    74    C    2  dx2y2  Ryd( 5d)     0.00017       3.53991
    75    C    2  dx2y2  Ryd( 4d)     0.00005       2.87755
    76    C    2  dz2    Ryd( 3d)     0.00102       1.80378
    77    C    2  dz2    Ryd( 5d)     0.00007       4.04658
    78    C    2  dz2    Ryd( 4d)     0.00010       3.28124
    79    C    2  f(0)   Ryd( 5f)     0.00012       3.47898
    80    C    2  f(0)   Ryd( 4f)     0.00001       2.15835
    81    C    2  f(C1)  Ryd( 5f)     0.00029       3.78328
    82    C    2  f(C1)  Ryd( 4f)     0.00001       2.80577
    83    C    2  f(S1)  Ryd( 5f)     0.00016       3.68240
    84    C    2  f(S1)  Ryd( 4f)     0.00003       2.73270
    85    C    2  f(C2)  Ryd( 5f)     0.00001       3.68089
    86    C    2  f(C2)  Ryd( 4f)     0.00001       2.23673
    87    C    2  f(S2)  Ryd( 5f)     0.00001       3.56304
    88    C    2  f(S2)  Ryd( 4f)     0.00001       2.37143
    89    C    2  f(C3)  Ryd( 5f)     0.00009       4.35865
    90    C    2  f(C3)  Ryd( 4f)     0.00010       4.07190
    91    C    2  f(S3)  Ryd( 4f)     0.00013       4.23378
    92    C    2  f(S3)  Ryd( 5f)     0.00006       5.52728
 
    93    C    3  S      Cor( 1S)     1.99907     -10.40799
    94    C    3  S      Val( 2S)     0.94301      -0.20682
    95    C    3  S      Ryd( 4S)     0.00107       1.98904
    96    C    3  S      Ryd( 5S)     0.00009       2.64819
    97    C    3  S      Ryd( 3S)     0.00002       1.83610
    98    C    3  px     Val( 2p)     1.15825      -0.10707
    99    C    3  px     Ryd( 4p)     0.00524       1.79700
   100    C    3  px     Ryd( 5p)     0.00006       2.59618
   101    C    3  px     Ryd( 3p)     0.00003       1.03452
   102    C    3  py     Val( 2p)     1.06496      -0.07733
   103    C    3  py     Ryd( 4p)     0.00343       1.74949
   104    C    3  py     Ryd( 5p)     0.00002       1.96078
   105    C    3  py     Ryd( 3p)     0.00002       1.04031
   106    C    3  pz     Val( 2p)     0.92119      -0.14407
   107    C    3  pz     Ryd( 4p)     0.00062       1.00727
   108    C    3  pz     Ryd( 5p)     0.00004       1.60742
   109    C    3  pz     Ryd( 3p)     0.00002       0.64293
   110    C    3  dxy    Ryd( 4d)     0.00143       2.96743
   111    C    3  dxy    Ryd( 5d)     0.00021       3.81260
   112    C    3  dxy    Ryd( 3d)     0.00008       2.91715
   113    C    3  dxz    Ryd( 3d)     0.00035       1.53448
   114    C    3  dxz    Ryd( 5d)     0.00003       3.01806
   115    C    3  dxz    Ryd( 4d)     0.00003       1.53590
   116    C    3  dyz    Ryd( 4d)     0.00058       1.57868
   117    C    3  dyz    Ryd( 5d)     0.00001       3.03639
   118    C    3  dyz    Ryd( 3d)     0.00002       1.53261
   119    C    3  dx2y2  Ryd( 4d)     0.00202       3.38772
   120    C    3  dx2y2  Ryd( 5d)     0.00025       4.03538
   121    C    3  dx2y2  Ryd( 3d)     0.00004       2.11261
   122    C    3  dz2    Ryd( 3d)     0.00079       1.94639
   123    C    3  dz2    Ryd( 4d)     0.00009       3.88917
   124    C    3  dz2    Ryd( 5d)     0.00009       3.94002
   125    C    3  f(0)   Ryd( 5f)     0.00009       3.43514
   126    C    3  f(0)   Ryd( 4f)     0.00003       2.26579
   127    C    3  f(C1)  Ryd( 5f)     0.00018       3.70328
   128    C    3  f(C1)  Ryd( 4f)     0.00003       3.07218
   129    C    3  f(S1)  Ryd( 5f)     0.00023       3.70078
   130    C    3  f(S1)  Ryd( 4f)     0.00002       3.08734
   131    C    3  f(C2)  Ryd( 5f)     0.00001       3.53776
   132    C    3  f(C2)  Ryd( 4f)     0.00002       2.23904
   133    C    3  f(S2)  Ryd( 5f)     0.00001       3.56545
   134    C    3  f(S2)  Ryd( 4f)     0.00002       2.40187
   135    C    3  f(C3)  Ryd( 5f)     0.00009       4.36011
   136    C    3  f(C3)  Ryd( 4f)     0.00009       3.93600
   137    C    3  f(S3)  Ryd( 4f)     0.00014       4.22261
   138    C    3  f(S3)  Ryd( 5f)     0.00004       5.92968
 
   139    C    4  S      Cor( 1S)     1.99898     -10.37720
   140    C    4  S      Val( 2S)     0.89919      -0.14427
   141    C    4  S      Ryd( 3S)     0.00107       1.95640
   142    C    4  S      Ryd( 4S)     0.00008       2.65273
   143    C    4  S      Ryd( 5S)     0.00002       3.30140
   144    C    4  px     Val( 2p)     1.12690      -0.11745
   145    C    4  px     Ryd( 5p)     0.00419       2.23695
   146    C    4  px     Ryd( 4p)     0.00004       2.10403
   147    C    4  px     Ryd( 3p)     0.00002       0.99231
   148    C    4  py     Val( 2p)     1.12407      -0.11321
   149    C    4  py     Ryd( 4p)     0.00616       2.20581
   150    C    4  py     Ryd( 5p)     0.00006       2.39030
   151    C    4  py     Ryd( 3p)     0.00004       0.99535
   152    C    4  pz     Val( 2p)     1.05748      -0.14712
   153    C    4  pz     Ryd( 4p)     0.00114       0.96193
   154    C    4  pz     Ryd( 5p)     0.00007       1.66905
   155    C    4  pz     Ryd( 3p)     0.00000       0.59436
   156    C    4  dxy    Ryd( 3d)     0.00144       3.45423
   157    C    4  dxy    Ryd( 4d)     0.00017       3.52086
   158    C    4  dxy    Ryd( 5d)     0.00005       4.66221
   159    C    4  dxz    Ryd( 3d)     0.00019       1.68023
   160    C    4  dxz    Ryd( 5d)     0.00008       2.57221
   161    C    4  dxz    Ryd( 4d)     0.00002       2.32099
   162    C    4  dyz    Ryd( 3d)     0.00030       1.73099
   163    C    4  dyz    Ryd( 5d)     0.00003       2.52961
   164    C    4  dyz    Ryd( 4d)     0.00002       2.41317
   165    C    4  dx2y2  Ryd( 4d)     0.00094       3.32731
   166    C    4  dx2y2  Ryd( 3d)     0.00032       3.23494
   167    C    4  dx2y2  Ryd( 5d)     0.00006       4.92166
   168    C    4  dz2    Ryd( 3d)     0.00051       2.12275
   169    C    4  dz2    Ryd( 4d)     0.00016       3.70827
   170    C    4  dz2    Ryd( 5d)     0.00006       4.35528
   171    C    4  f(0)   Ryd( 4f)     0.00033       1.57412
   172    C    4  f(0)   Ryd( 5f)     0.00019       3.41831
   173    C    4  f(C1)  Ryd( 4f)     0.00065       1.85469
   174    C    4  f(C1)  Ryd( 5f)     0.00029       3.57515
   175    C    4  f(S1)  Ryd( 4f)     0.00063       1.90531
   176    C    4  f(S1)  Ryd( 5f)     0.00033       3.64901
   177    C    4  f(C2)  Ryd( 4f)     0.00050       1.50305
   178    C    4  f(C2)  Ryd( 5f)     0.00004       3.38883
   179    C    4  f(S2)  Ryd( 4f)     0.00033       1.47078
   180    C    4  f(S2)  Ryd( 5f)     0.00003       3.42524
   181    C    4  f(C3)  Ryd( 4f)     0.00237       2.58425
   182    C    4  f(C3)  Ryd( 5f)     0.00032       4.01836
   183    C    4  f(S3)  Ryd( 4f)     0.00121       2.34318
   184    C    4  f(S3)  Ryd( 5f)     0.00009       4.35970
 
   185    C    5  S      Cor( 1S)     1.99907     -10.40372
   186    C    5  S      Val( 2S)     0.93809      -0.18287
   187    C    5  S      Ryd( 4S)     0.00097       2.04210
   188    C    5  S      Ryd( 5S)     0.00012       2.61989
   189    C    5  S      Ryd( 3S)     0.00002       1.99749
   190    C    5  px     Val( 2p)     1.02257      -0.05881
   191    C    5  px     Ryd( 4p)     0.00316       2.02998
   192    C    5  px     Ryd( 3p)     0.00007       1.15145
   193    C    5  px     Ryd( 5p)     0.00006       2.76802
   194    C    5  py     Val( 2p)     1.19213      -0.10028
   195    C    5  py     Ryd( 4p)     0.00524       1.94182
   196    C    5  py     Ryd( 3p)     0.00011       1.42256
   197    C    5  py     Ryd( 5p)     0.00007       2.72783
   198    C    5  pz     Val( 2p)     0.88097      -0.13299
   199    C    5  pz     Ryd( 4p)     0.00087       1.01212
   200    C    5  pz     Ryd( 3p)     0.00002       0.85382
   201    C    5  pz     Ryd( 5p)     0.00007       1.57342
   202    C    5  dxy    Ryd( 4d)     0.00180       3.83513
   203    C    5  dxy    Ryd( 5d)     0.00037       4.16061
   204    C    5  dxy    Ryd( 3d)     0.00006       3.55522
   205    C    5  dxz    Ryd( 3d)     0.00045       1.48086
   206    C    5  dxz    Ryd( 5d)     0.00005       3.02228
   207    C    5  dxz    Ryd( 4d)     0.00002       2.35127
   208    C    5  dyz    Ryd( 3d)     0.00049       1.41909
   209    C    5  dyz    Ryd( 5d)     0.00005       3.03695
   210    C    5  dyz    Ryd( 4d)     0.00004       2.11693
   211    C    5  dx2y2  Ryd( 3d)     0.00148       2.48641
   212    C    5  dx2y2  Ryd( 4d)     0.00007       3.77716
   213    C    5  dx2y2  Ryd( 5d)     0.00007       4.97179
   214    C    5  dz2    Ryd( 3d)     0.00070       1.92378
   215    C    5  dz2    Ryd( 4d)     0.00018       3.61705
   216    C    5  dz2    Ryd( 5d)     0.00006       4.38004
   217    C    5  f(0)   Ryd( 4f)     0.00004       1.34127
   218    C    5  f(0)   Ryd( 5f)     0.00012       3.57759
   219    C    5  f(C1)  Ryd( 4f)     0.00024       2.02401
   220    C    5  f(C1)  Ryd( 5f)     0.00033       3.81784
   221    C    5  f(S1)  Ryd( 4f)     0.00046       1.79499
   222    C    5  f(S1)  Ryd( 5f)     0.00019       3.73431
   223    C    5  f(C2)  Ryd( 4f)     0.00014       1.31632
   224    C    5  f(C2)  Ryd( 5f)     0.00003       3.66386
   225    C    5  f(S2)  Ryd( 4f)     0.00038       1.31015
   226    C    5  f(S2)  Ryd( 5f)     0.00001       3.65173
   227    C    5  f(C3)  Ryd( 4f)     0.00119       1.89116
   228    C    5  f(C3)  Ryd( 5f)     0.00017       4.85793
   229    C    5  f(S3)  Ryd( 4f)     0.00043       3.73973
   230    C    5  f(S3)  Ryd( 5f)     0.00016       4.25932
 
   231    C    6  S      Cor( 1S)     1.99885     -10.38866
   232    C    6  S      Val( 2S)     0.89039      -0.13559
   233    C    6  S      Ryd( 3S)     0.00108       2.08448
   234    C    6  S      Ryd( 4S)     0.00008       2.50801
   235    C    6  S      Ryd( 5S)     0.00003       3.49209
   236    C    6  px     Val( 2p)     1.10865      -0.12261
   237    C    6  px     Ryd( 5p)     0.00562       2.37888
   238    C    6  px     Ryd( 4p)     0.00006       2.29001
   239    C    6  px     Ryd( 3p)     0.00005       1.01721
   240    C    6  py     Val( 2p)     1.13497      -0.12322
   241    C    6  py     Ryd( 5p)     0.00492       2.22742
   242    C    6  py     Ryd( 4p)     0.00008       2.16175
   243    C    6  py     Ryd( 3p)     0.00003       1.17858
   244    C    6  pz     Val( 2p)     1.06759      -0.15259
   245    C    6  pz     Ryd( 4p)     0.00105       0.97745
   246    C    6  pz     Ryd( 5p)     0.00009       1.83016
   247    C    6  pz     Ryd( 3p)     0.00001       0.62264
   248    C    6  dxy    Ryd( 3d)     0.00168       3.19687
   249    C    6  dxy    Ryd( 4d)     0.00022       3.52629
   250    C    6  dxy    Ryd( 5d)     0.00003       5.38272
   251    C    6  dxz    Ryd( 3d)     0.00024       1.63522
   252    C    6  dxz    Ryd( 5d)     0.00008       2.75316
   253    C    6  dxz    Ryd( 4d)     0.00003       2.37957
   254    C    6  dyz    Ryd( 3d)     0.00034       1.58584
   255    C    6  dyz    Ryd( 5d)     0.00005       2.65287
   256    C    6  dyz    Ryd( 4d)     0.00002       2.55087
   257    C    6  dx2y2  Ryd( 3d)     0.00106       3.27057
   258    C    6  dx2y2  Ryd( 4d)     0.00030       3.51028
   259    C    6  dx2y2  Ryd( 5d)     0.00006       5.48290
   260    C    6  dz2    Ryd( 3d)     0.00077       1.93397
   261    C    6  dz2    Ryd( 4d)     0.00018       3.73218
   262    C    6  dz2    Ryd( 5d)     0.00005       4.04219
   263    C    6  f(0)   Ryd( 4f)     0.00044       1.60707
   264    C    6  f(0)   Ryd( 5f)     0.00023       3.42285
   265    C    6  f(C1)  Ryd( 4f)     0.00048       2.04498
   266    C    6  f(C1)  Ryd( 5f)     0.00043       3.62580
   267    C    6  f(S1)  Ryd( 4f)     0.00073       2.01320
   268    C    6  f(S1)  Ryd( 5f)     0.00034       3.61641
   269    C    6  f(C2)  Ryd( 4f)     0.00054       1.52169
   270    C    6  f(C2)  Ryd( 5f)     0.00004       3.41382
   271    C    6  f(S2)  Ryd( 4f)     0.00077       1.55359
   272    C    6  f(S2)  Ryd( 5f)     0.00004       3.37690
   273    C    6  f(C3)  Ryd( 4f)     0.00190       2.64332
   274    C    6  f(C3)  Ryd( 5f)     0.00030       4.17423
   275    C    6  f(S3)  Ryd( 4f)     0.00125       3.06566
   276    C    6  f(S3)  Ryd( 5f)     0.00010       4.65523
 
   277    C    7  S      Cor( 1S)     1.99908     -10.54420
   278    C    7  S      Val( 2S)     0.77975      -0.10922
   279    C    7  S      Ryd( 3S)     0.00368       2.01564
   280    C    7  S      Ryd( 4S)     0.00012       2.09474
   281    C    7  S      Ryd( 5S)     0.00006       2.58407
   282    C    7  px     Val( 2p)     0.89341      -0.04374
   283    C    7  px     Ryd( 5p)     0.01028       1.58645
   284    C    7  px     Ryd( 3p)     0.00023       1.26398
   285    C    7  px     Ryd( 4p)     0.00003       1.32597
   286    C    7  py     Val( 2p)     0.75038      -0.04376
   287    C    7  py     Ryd( 5p)     0.00839       1.63725
   288    C    7  py     Ryd( 3p)     0.00010       1.34994
   289    C    7  py     Ryd( 4p)     0.00005       1.59619
   290    C    7  pz     Val( 2p)     0.75519      -0.13298
   291    C    7  pz     Ryd( 5p)     0.00061       1.13399
   292    C    7  pz     Ryd( 3p)     0.00010       0.78324
   293    C    7  pz     Ryd( 4p)     0.00002       0.91609
   294    C    7  dxy    Ryd( 4d)     0.00139       3.05086
   295    C    7  dxy    Ryd( 3d)     0.00019       2.96069
   296    C    7  dxy    Ryd( 5d)     0.00007       3.59428
   297    C    7  dxz    Ryd( 3d)     0.00136       2.25388
   298    C    7  dxz    Ryd( 5d)     0.00005       2.33060
   299    C    7  dxz    Ryd( 4d)     0.00005       2.31348
   300    C    7  dyz    Ryd( 3d)     0.00183       2.17899
   301    C    7  dyz    Ryd( 4d)     0.00002       2.31424
   302    C    7  dyz    Ryd( 5d)     0.00003       2.35070
   303    C    7  dx2y2  Ryd( 4d)     0.00157       3.05792
   304    C    7  dx2y2  Ryd( 3d)     0.00034       3.03933
   305    C    7  dx2y2  Ryd( 5d)     0.00006       3.38097
   306    C    7  dz2    Ryd( 3d)     0.00050       2.92051
   307    C    7  dz2    Ryd( 4d)     0.00059       3.25202
   308    C    7  dz2    Ryd( 5d)     0.00010       3.58347
   309    C    7  f(0)   Ryd( 5f)     0.00010       3.52546
   310    C    7  f(0)   Ryd( 4f)     0.00002       2.44038
   311    C    7  f(C1)  Ryd( 5f)     0.00014       3.73756
   312    C    7  f(C1)  Ryd( 4f)     0.00003       3.41296
   313    C    7  f(S1)  Ryd( 5f)     0.00008       3.68200
   314    C    7  f(S1)  Ryd( 4f)     0.00003       3.20941
   315    C    7  f(C2)  Ryd( 5f)     0.00003       3.55787
   316    C    7  f(C2)  Ryd( 4f)     0.00003       2.83381
   317    C    7  f(S2)  Ryd( 5f)     0.00001       3.50021
   318    C    7  f(S2)  Ryd( 4f)     0.00004       2.64428
   319    C    7  f(C3)  Ryd( 5f)     0.00006       4.56517
   320    C    7  f(C3)  Ryd( 4f)     0.00004       4.06663
   321    C    7  f(S3)  Ryd( 4f)     0.00007       4.63495
   322    C    7  f(S3)  Ryd( 5f)     0.00003       8.38385
 
   323    O    8  S      Cor( 1S)     1.99979     -19.33262
   324    O    8  S      Val( 2S)     1.70646      -1.00762
   325    O    8  S      Ryd( 4S)     0.00057       2.82664
   326    O    8  S      Ryd( 3S)     0.00017       1.86232
   327    O    8  S      Ryd( 5S)     0.00001       8.45587
   328    O    8  px     Val( 2p)     1.61315      -0.33986
   329    O    8  px     Ryd( 4p)     0.00059       1.60254
   330    O    8  px     Ryd( 3p)     0.00014       0.98867
   331    O    8  px     Ryd( 5p)     0.00006       4.94321
   332    O    8  py     Val( 2p)     1.80527      -0.35002
   333    O    8  py     Ryd( 4p)     0.00174       1.28188
   334    O    8  py     Ryd( 3p)     0.00006       0.91598
   335    O    8  py     Ryd( 5p)     0.00002       4.57968
   336    O    8  pz     Val( 2p)     1.45164      -0.29572
   337    O    8  pz     Ryd( 4p)     0.00053       1.05744
   338    O    8  pz     Ryd( 3p)     0.00001       0.68878
   339    O    8  pz     Ryd( 5p)     0.00001       3.97784
   340    O    8  dxy    Ryd( 3d)     0.00731       1.97989
   341    O    8  dxy    Ryd( 4d)     0.00009       2.77224
   342    O    8  dxy    Ryd( 5d)     0.00002       6.73406
   343    O    8  dxz    Ryd( 3d)     0.00508       1.55087
   344    O    8  dxz    Ryd( 4d)     0.00001       1.57131
   345    O    8  dxz    Ryd( 5d)     0.00002       6.56023
   346    O    8  dyz    Ryd( 3d)     0.00161       1.46759
   347    O    8  dyz    Ryd( 4d)     0.00002       1.51714
   348    O    8  dyz    Ryd( 5d)     0.00001       6.54954
   349    O    8  dx2y2  Ryd( 3d)     0.00601       1.93845
   350    O    8  dx2y2  Ryd( 4d)     0.00007       2.30471
   351    O    8  dx2y2  Ryd( 5d)     0.00005       6.69236
   352    O    8  dz2    Ryd( 3d)     0.00278       1.65937
   353    O    8  dz2    Ryd( 4d)     0.00009       2.38911
   354    O    8  dz2    Ryd( 5d)     0.00000       6.64625
   355    O    8  f(0)   Ryd( 4f)     0.00011       3.19992
   356    O    8  f(0)   Ryd( 5f)     0.00000       5.42991
   357    O    8  f(C1)  Ryd( 4f)     0.00013       3.74839
   358    O    8  f(C1)  Ryd( 5f)     0.00001       5.71446
   359    O    8  f(S1)  Ryd( 4f)     0.00005       3.31248
   360    O    8  f(S1)  Ryd( 5f)     0.00001       5.55739
   361    O    8  f(C2)  Ryd( 4f)     0.00008       3.15971
   362    O    8  f(C2)  Ryd( 5f)     0.00000       5.62799
   363    O    8  f(S2)  Ryd( 4f)     0.00022       3.24545
   364    O    8  f(S2)  Ryd( 5f)     0.00002       5.56377
   365    O    8  f(C3)  Ryd( 4f)     0.00038       3.67026
   366    O    8  f(C3)  Ryd( 5f)     0.00003       5.88593
   367    O    8  f(S3)  Ryd( 4f)     0.00037       4.13295
   368    O    8  f(S3)  Ryd( 5f)     0.00001       6.03715
 
   369    O    9  S      Cor( 1S)     1.99978     -19.46237
   370    O    9  S      Val( 2S)     1.67671      -1.03800
   371    O    9  S      Ryd( 3S)     0.00033       1.65702
   372    O    9  S      Ryd( 4S)     0.00010       2.72526
   373    O    9  S      Ryd( 5S)     0.00001       9.17754
   374    O    9  px     Val( 2p)     1.63011      -0.38830
   375    O    9  px     Ryd( 3p)     0.00046       1.20470
   376    O    9  px     Ryd( 4p)     0.00009       1.28507
   377    O    9  px     Ryd( 5p)     0.00005       4.69605
   378    O    9  py     Val( 2p)     1.52848      -0.37975
   379    O    9  py     Ryd( 4p)     0.00097       1.12628
   380    O    9  py     Ryd( 3p)     0.00009       0.89844
   381    O    9  py     Ryd( 5p)     0.00003       4.79357
   382    O    9  pz     Val( 2p)     1.84344      -0.41577
   383    O    9  pz     Ryd( 4p)     0.00105       0.89053
   384    O    9  pz     Ryd( 3p)     0.00001       0.71313
   385    O    9  pz     Ryd( 5p)     0.00000       3.92637
   386    O    9  dxy    Ryd( 3d)     0.00272       1.63658
   387    O    9  dxy    Ryd( 4d)     0.00009       2.28419
   388    O    9  dxy    Ryd( 5d)     0.00005       6.61706
   389    O    9  dxz    Ryd( 3d)     0.00208       1.15699
   390    O    9  dxz    Ryd( 4d)     0.00004       1.93153
   391    O    9  dxz    Ryd( 5d)     0.00001       6.36899
   392    O    9  dyz    Ryd( 3d)     0.00277       1.38676
   393    O    9  dyz    Ryd( 4d)     0.00005       1.75020
   394    O    9  dyz    Ryd( 5d)     0.00003       6.44130
   395    O    9  dx2y2  Ryd( 3d)     0.00707       2.13225
   396    O    9  dx2y2  Ryd( 4d)     0.00010       2.34704
   397    O    9  dx2y2  Ryd( 5d)     0.00005       6.93459
   398    O    9  dz2    Ryd( 3d)     0.00304       1.53853
   399    O    9  dz2    Ryd( 4d)     0.00012       2.39710
   400    O    9  dz2    Ryd( 5d)     0.00001       6.64237
   401    O    9  f(0)   Ryd( 4f)     0.00049       2.80644
   402    O    9  f(0)   Ryd( 5f)     0.00001       5.89552
   403    O    9  f(C1)  Ryd( 4f)     0.00016       3.23673
   404    O    9  f(C1)  Ryd( 5f)     0.00001       6.19319
   405    O    9  f(S1)  Ryd( 4f)     0.00021       3.56898
   406    O    9  f(S1)  Ryd( 5f)     0.00001       6.11706
   407    O    9  f(C2)  Ryd( 4f)     0.00001       2.96008
   408    O    9  f(C2)  Ryd( 5f)     0.00001       5.96737
   409    O    9  f(S2)  Ryd( 4f)     0.00009       2.78843
   410    O    9  f(S2)  Ryd( 5f)     0.00000       6.03016
   411    O    9  f(C3)  Ryd( 4f)     0.00009       3.89338
   412    O    9  f(C3)  Ryd( 5f)     0.00002       6.44989
   413    O    9  f(S3)  Ryd( 4f)     0.00008       4.40915
   414    O    9  f(S3)  Ryd( 5f)     0.00005       6.49885
 
   415    C   10  S      Cor( 1S)     1.99921     -10.48578
   416    C   10  S      Val( 2S)     0.89909      -0.18867
   417    C   10  S      Ryd( 4S)     0.00810       1.88510
   418    C   10  S      Ryd( 5S)     0.00009       2.58686
   419    C   10  S      Ryd( 3S)     0.00003       1.52402
   420    C   10  px     Val( 2p)     1.06739      -0.07775
   421    C   10  px     Ryd( 5p)     0.00253       1.64695
   422    C   10  px     Ryd( 3p)     0.00020       1.09548
   423    C   10  px     Ryd( 4p)     0.00005       1.22983
   424    C   10  py     Val( 2p)     0.84680      -0.03000
   425    C   10  py     Ryd( 5p)     0.01169       1.66970
   426    C   10  py     Ryd( 4p)     0.00008       1.41590
   427    C   10  py     Ryd( 3p)     0.00007       1.34449
   428    C   10  pz     Val( 2p)     0.73166      -0.12375
   429    C   10  pz     Ryd( 5p)     0.00037       1.17711
   430    C   10  pz     Ryd( 4p)     0.00004       0.94227
   431    C   10  pz     Ryd( 3p)     0.00003       0.79014
   432    C   10  dxy    Ryd( 4d)     0.00420       2.92840
   433    C   10  dxy    Ryd( 5d)     0.00015       3.36731
   434    C   10  dxy    Ryd( 3d)     0.00002       2.39726
   435    C   10  dxz    Ryd( 4d)     0.00027       1.86520
   436    C   10  dxz    Ryd( 5d)     0.00001       2.82306
   437    C   10  dxz    Ryd( 3d)     0.00004       1.29776
   438    C   10  dyz    Ryd( 3d)     0.00131       1.85578
   439    C   10  dyz    Ryd( 5d)     0.00007       2.81152
   440    C   10  dyz    Ryd( 4d)     0.00001       1.86473
   441    C   10  dx2y2  Ryd( 4d)     0.00050       3.00178
   442    C   10  dx2y2  Ryd( 5d)     0.00025       3.90375
   443    C   10  dx2y2  Ryd( 3d)     0.00004       2.39028
   444    C   10  dz2    Ryd( 3d)     0.00038       2.39686
   445    C   10  dz2    Ryd( 4d)     0.00019       3.48712
   446    C   10  dz2    Ryd( 5d)     0.00005       3.66019
   447    C   10  f(0)   Ryd( 5f)     0.00005       3.13384
   448    C   10  f(0)   Ryd( 4f)     0.00001       2.48091
   449    C   10  f(C1)  Ryd( 5f)     0.00014       3.34012
   450    C   10  f(C1)  Ryd( 4f)     0.00002       3.02448
   451    C   10  f(S1)  Ryd( 5f)     0.00011       3.44568
   452    C   10  f(S1)  Ryd( 4f)     0.00001       3.44418
   453    C   10  f(C2)  Ryd( 5f)     0.00002       3.36557
   454    C   10  f(C2)  Ryd( 4f)     0.00000       2.59464
   455    C   10  f(S2)  Ryd( 5f)     0.00002       3.17722
   456    C   10  f(S2)  Ryd( 4f)     0.00003       2.68826
   457    C   10  f(C3)  Ryd( 5f)     0.00007       4.00142
   458    C   10  f(C3)  Ryd( 4f)     0.00005       3.85379
   459    C   10  f(S3)  Ryd( 4f)     0.00009       4.29701
   460    C   10  f(S3)  Ryd( 5f)     0.00003       6.96168
 
   461    O   11  S      Cor( 1S)     1.99981     -19.35588
   462    O   11  S      Val( 2S)     1.69963      -1.00647
   463    O   11  S      Ryd( 3S)     0.00069       2.30917
   464    O   11  S      Ryd( 4S)     0.00009       3.69241
   465    O   11  S      Ryd( 5S)     0.00001       7.36876
   466    O   11  px     Val( 2p)     1.88819      -0.35445
   467    O   11  px     Ryd( 4p)     0.00254       1.12790
   468    O   11  px     Ryd( 3p)     0.00009       1.05370
   469    O   11  px     Ryd( 5p)     0.00001       4.51997
   470    O   11  py     Val( 2p)     1.55796      -0.34864
   471    O   11  py     Ryd( 4p)     0.00036       1.50137
   472    O   11  py     Ryd( 3p)     0.00015       0.47580
   473    O   11  py     Ryd( 5p)     0.00005       5.75858
   474    O   11  pz     Val( 2p)     1.34699      -0.28633
   475    O   11  pz     Ryd( 4p)     0.00050       0.97398
   476    O   11  pz     Ryd( 3p)     0.00001       0.47327
   477    O   11  pz     Ryd( 5p)     0.00001       4.22021
   478    O   11  dxy    Ryd( 4d)     0.00443       1.89603
   479    O   11  dxy    Ryd( 3d)     0.00005       1.73753
   480    O   11  dxy    Ryd( 5d)     0.00006       6.73274
   481    O   11  dxz    Ryd( 3d)     0.00007       1.47063
   482    O   11  dxz    Ryd( 4d)     0.00001       1.64750
   483    O   11  dxz    Ryd( 5d)     0.00000       6.39266
   484    O   11  dyz    Ryd( 4d)     0.00533       1.67585
   485    O   11  dyz    Ryd( 3d)     0.00003       1.49952
   486    O   11  dyz    Ryd( 5d)     0.00001       6.57428
   487    O   11  dx2y2  Ryd( 3d)     0.00802       2.02813
   488    O   11  dx2y2  Ryd( 4d)     0.00007       2.85852
   489    O   11  dx2y2  Ryd( 5d)     0.00001       6.87134
   490    O   11  dz2    Ryd( 3d)     0.00287       1.66569
   491    O   11  dz2    Ryd( 4d)     0.00003       2.36994
   492    O   11  dz2    Ryd( 5d)     0.00001       6.58953
   493    O   11  f(0)   Ryd( 4f)     0.00004       3.44508
   494    O   11  f(0)   Ryd( 5f)     0.00000       5.14623
   495    O   11  f(C1)  Ryd( 4f)     0.00001       3.37158
   496    O   11  f(C1)  Ryd( 5f)     0.00002       5.11343
   497    O   11  f(S1)  Ryd( 4f)     0.00013       4.06566
   498    O   11  f(S1)  Ryd( 5f)     0.00000       5.62194
   499    O   11  f(C2)  Ryd( 4f)     0.00020       3.53600
   500    O   11  f(C2)  Ryd( 5f)     0.00001       5.29747
   501    O   11  f(S2)  Ryd( 4f)     0.00001       3.35000
   502    O   11  f(S2)  Ryd( 5f)     0.00000       5.46234
   503    O   11  f(C3)  Ryd( 4f)     0.00026       3.88579
   504    O   11  f(C3)  Ryd( 5f)     0.00002       5.68636
   505    O   11  f(S3)  Ryd( 4f)     0.00035       4.25754
   506    O   11  f(S3)  Ryd( 5f)     0.00001       5.79117
 
   507    H   12  S      Val( 1S)     0.75624       0.03905
   508    H   12  S      Ryd( 4S)     0.00042       1.95724
   509    H   12  S      Ryd( 2S)     0.00011       0.73500
   510    H   12  S      Ryd( 3S)     0.00005       1.74198
   511    H   12  px     Ryd( 2p)     0.00066       0.94735
   512    H   12  px     Ryd( 4p)     0.00018       4.17126
   513    H   12  px     Ryd( 3p)     0.00006       4.06638
   514    H   12  py     Ryd( 2p)     0.00052       0.91275
   515    H   12  py     Ryd( 4p)     0.00008       4.13211
   516    H   12  py     Ryd( 3p)     0.00009       3.52441
   517    H   12  pz     Ryd( 2p)     0.00008       0.61327
   518    H   12  pz     Ryd( 4p)     0.00002       3.94013
   519    H   12  pz     Ryd( 3p)     0.00003       2.09126
   520    H   12  dxy    Ryd( 3d)     0.00008       2.46096
   521    H   12  dxy    Ryd( 4d)     0.00003       4.36642
   522    H   12  dxz    Ryd( 3d)     0.00001       1.82336
   523    H   12  dxz    Ryd( 4d)     0.00001       3.70671
   524    H   12  dyz    Ryd( 3d)     0.00002       1.78389
   525    H   12  dyz    Ryd( 4d)     0.00001       3.59235
   526    H   12  dx2y2  Ryd( 3d)     0.00003       2.15143
   527    H   12  dx2y2  Ryd( 4d)     0.00002       4.35286
   528    H   12  dz2    Ryd( 3d)     0.00004       2.31258
   529    H   12  dz2    Ryd( 4d)     0.00002       4.10023
 
   530    H   13  S      Val( 1S)     0.77931       0.02131
   531    H   13  S      Ryd( 4S)     0.00034       2.01623
   532    H   13  S      Ryd( 2S)     0.00013       0.74363
   533    H   13  S      Ryd( 3S)     0.00001       1.51628
   534    H   13  px     Ryd( 2p)     0.00015       1.11627
   535    H   13  px     Ryd( 4p)     0.00006       3.51381
   536    H   13  px     Ryd( 3p)     0.00007       2.40985
   537    H   13  py     Ryd( 2p)     0.00101       1.11514
   538    H   13  py     Ryd( 4p)     0.00009       5.16231
   539    H   13  py     Ryd( 3p)     0.00004       3.13701
   540    H   13  pz     Ryd( 2p)     0.00015       0.90469
   541    H   13  pz     Ryd( 4p)     0.00008       3.16029
   542    H   13  pz     Ryd( 3p)     0.00001       2.10276
   543    H   13  dxy    Ryd( 3d)     0.00001       2.18544
   544    H   13  dxy    Ryd( 4d)     0.00002       4.26327
   545    H   13  dxz    Ryd( 3d)     0.00001       1.32928
   546    H   13  dxz    Ryd( 4d)     0.00000       3.66679
   547    H   13  dyz    Ryd( 3d)     0.00000       1.69416
   548    H   13  dyz    Ryd( 4d)     0.00002       4.01608
   549    H   13  dx2y2  Ryd( 3d)     0.00011       2.38059
   550    H   13  dx2y2  Ryd( 4d)     0.00004       4.12433
   551    H   13  dz2    Ryd( 3d)     0.00002       1.84536
   552    H   13  dz2    Ryd( 4d)     0.00003       3.84262
 
   553    H   14  S      Val( 1S)     0.78244       0.01379
   554    H   14  S      Ryd( 4S)     0.00060       1.94175
   555    H   14  S      Ryd( 2S)     0.00008       0.87432
   556    H   14  S      Ryd( 3S)     0.00002       1.39583
   557    H   14  px     Ryd( 2p)     0.00071       1.10000
   558    H   14  px     Ryd( 4p)     0.00013       4.70703
   559    H   14  px     Ryd( 3p)     0.00008       3.19610
   560    H   14  py     Ryd( 2p)     0.00041       1.03421
   561    H   14  py     Ryd( 4p)     0.00007       3.96659
   562    H   14  py     Ryd( 3p)     0.00010       2.51926
   563    H   14  pz     Ryd( 2p)     0.00013       0.72646
   564    H   14  pz     Ryd( 4p)     0.00007       3.40765
   565    H   14  pz     Ryd( 3p)     0.00003       2.05311
   566    H   14  dxy    Ryd( 3d)     0.00007       2.28207
   567    H   14  dxy    Ryd( 4d)     0.00005       4.30593
   568    H   14  dxz    Ryd( 3d)     0.00001       1.50766
   569    H   14  dxz    Ryd( 4d)     0.00001       3.98342
   570    H   14  dyz    Ryd( 3d)     0.00001       1.36175
   571    H   14  dyz    Ryd( 4d)     0.00000       3.80221
   572    H   14  dx2y2  Ryd( 3d)     0.00004       2.16125
   573    H   14  dx2y2  Ryd( 4d)     0.00002       4.30007
   574    H   14  dz2    Ryd( 3d)     0.00003       1.87776
   575    H   14  dz2    Ryd( 4d)     0.00002       3.92581
 
   576    H   15  S      Val( 1S)     0.74506       0.04907
   577    H   15  S      Ryd( 4S)     0.00082       1.91249
   578    H   15  S      Ryd( 2S)     0.00012       0.59530
   579    H   15  S      Ryd( 3S)     0.00007       1.83847
   580    H   15  px     Ryd( 2p)     0.00075       1.06359
   581    H   15  px     Ryd( 4p)     0.00005       4.15707
   582    H   15  px     Ryd( 3p)     0.00007       3.24129
   583    H   15  py     Ryd( 2p)     0.00094       0.81029
   584    H   15  py     Ryd( 4p)     0.00027       4.73127
   585    H   15  py     Ryd( 3p)     0.00005       4.41133
   586    H   15  pz     Ryd( 2p)     0.00020       0.47297
   587    H   15  pz     Ryd( 4p)     0.00001       4.02325
   588    H   15  pz     Ryd( 3p)     0.00003       2.22572
   589    H   15  dxy    Ryd( 3d)     0.00005       2.00763
   590    H   15  dxy    Ryd( 4d)     0.00003       4.61250
   591    H   15  dxz    Ryd( 3d)     0.00005       1.54047
   592    H   15  dxz    Ryd( 4d)     0.00000       3.87219
   593    H   15  dyz    Ryd( 3d)     0.00002       1.47791
   594    H   15  dyz    Ryd( 4d)     0.00002       4.19169
   595    H   15  dx2y2  Ryd( 3d)     0.00006       2.58421
   596    H   15  dx2y2  Ryd( 4d)     0.00003       4.59443
   597    H   15  dz2    Ryd( 3d)     0.00005       2.69186
   598    H   15  dz2    Ryd( 4d)     0.00003       4.23740
 
   599    H   16  S      Val( 1S)     0.48929       0.13158
   600    H   16  S      Ryd( 4S)     0.00119       1.83213
   601    H   16  S      Ryd( 3S)     0.00012       1.70774
   602    H   16  S      Ryd( 2S)     0.00012       0.50483
   603    H   16  px     Ryd( 3p)     0.00015       3.16511
   604    H   16  px     Ryd( 4p)     0.00033       3.25817
   605    H   16  px     Ryd( 2p)     0.00003       2.98505
   606    H   16  py     Ryd( 2p)     0.00028       2.05235
   607    H   16  py     Ryd( 3p)     0.00008       2.81867
   608    H   16  py     Ryd( 4p)     0.00002       3.20211
   609    H   16  pz     Ryd( 2p)     0.00050       1.80255
   610    H   16  pz     Ryd( 3p)     0.00004       2.50283
   611    H   16  pz     Ryd( 4p)     0.00001       2.78264
   612    H   16  dxy    Ryd( 3d)     0.00009       1.35995
   613    H   16  dxy    Ryd( 4d)     0.00002       4.47924
   614    H   16  dxz    Ryd( 3d)     0.00004       1.12565
   615    H   16  dxz    Ryd( 4d)     0.00000       4.22704
   616    H   16  dyz    Ryd( 3d)     0.00009       1.15376
   617    H   16  dyz    Ryd( 4d)     0.00000       3.83840
   618    H   16  dx2y2  Ryd( 3d)     0.00001       1.80572
   619    H   16  dx2y2  Ryd( 4d)     0.00000       4.56737
   620    H   16  dz2    Ryd( 3d)     0.00012       1.63256
   621    H   16  dz2    Ryd( 4d)     0.00001       4.06531
 
   622    H   17  S      Val( 1S)     0.89437      -0.03968
   623    H   17  S      Ryd( 3S)     0.00093       1.03563
   624    H   17  S      Ryd( 4S)     0.00012       2.17351
   625    H   17  S      Ryd( 2S)     0.00005       0.97990
   626    H   17  px     Ryd( 2p)     0.00083       0.84908
   627    H   17  px     Ryd( 4p)     0.00017       4.34167
   628    H   17  px     Ryd( 3p)     0.00004       3.14217
   629    H   17  py     Ryd( 2p)     0.00035       1.08592
   630    H   17  py     Ryd( 4p)     0.00014       4.17735
   631    H   17  py     Ryd( 3p)     0.00003       2.30984
   632    H   17  pz     Ryd( 2p)     0.00013       0.65021
   633    H   17  pz     Ryd( 4p)     0.00000       3.88208
   634    H   17  pz     Ryd( 3p)     0.00003       1.51626
   635    H   17  dxy    Ryd( 3d)     0.00005       2.12352
   636    H   17  dxy    Ryd( 4d)     0.00004       4.30132
   637    H   17  dxz    Ryd( 3d)     0.00001       1.72897
   638    H   17  dxz    Ryd( 4d)     0.00000       3.74220
   639    H   17  dyz    Ryd( 3d)     0.00002       1.60500
   640    H   17  dyz    Ryd( 4d)     0.00001       3.49059
   641    H   17  dx2y2  Ryd( 3d)     0.00005       2.09665
   642    H   17  dx2y2  Ryd( 4d)     0.00002       4.29329
   643    H   17  dz2    Ryd( 3d)     0.00005       2.05594
   644    H   17  dz2    Ryd( 4d)     0.00003       3.78863

 WARNING:  1 low occupancy (<1.9990e) core orbital  found on  C    4
[...]
   zy         0.312031D+00      0.462382D-01      0.514469D-01
   zz         0.117089D+03      0.173507D+02      0.193053D+02

 ----------------------------------------------------------------------
 Unable to Open any file for archive entry.
 1\1\GINC-AE29\Freq\RM062X\Aug-CC-pVTZ\C8H6O3\DHUANG\06-Sep-2022\0\\#N 
 Geom=AllCheck Guess=TCheck SCRF=Check GenChk RM062X/Aug-CC-pVTZ Freq\\
 3-CHO_benzoic-acid\\0,1\C,-1.9521831248,-0.3281939034,-0.588309869\C,-
 1.6397825167,-1.1522525527,-1.6551790035\C,-0.3102443353,-1.4500347607
 ,-1.9227275639\C,0.7005312684,-0.9253935345,-1.1262040932\C,0.38865461
 08,-0.0965225469,-0.0528759689\C,-0.9384927141,0.1992120727,0.21217073
 14\C,-1.3380314039,1.0788517771,1.3445582796\O,-2.4728542723,1.3640818
 929,1.6144831577\O,-0.288237915,1.5318109403,2.0497586183\C,2.11427732
 74,-1.2547231844,-1.4276012709\O,3.0527750111,-0.8491309247,-0.7965004
 918\H,-2.977340895,-0.0768184621,-0.3530360764\H,-2.4259812354,-1.5601
 570832,-2.2745036748\H,-0.0499714441,-2.0938906602,-2.7547274078\H,1.1
 862869987,0.3037904839,0.557443943\H,-0.6398789138,2.0883790431,2.7568
 616241\H,2.2616735542,-1.9200085971,-2.299010934\\Version=ES64L-G16Rev
 C.01\State=1-A\HF=-534.1457863\RMSD=3.810e-09\RMSF=1.353e-04\ZeroPoint
 =0.1259299\Thermal=0.1350338\ETot=-534.0107525\HTot=-534.0098083\GTot=
 -534.0549161\Dipole=-0.540711,-0.4152654,-0.6054084\DipoleDeriv=0.0119
 381,0.0532591,0.0774766,-0.0551901,0.0121776,0.0850917,-0.0669367,0.09
 5635,0.0650802,-0.0714668,0.1302187,0.1798744,0.1547683,-0.1439717,0.0
 077355,0.2125585,0.005352,-0.1107758,0.1774289,-0.0739538,-0.0738881,0
 .0406226,-0.0289165,0.0666532,0.0786761,0.0555417,0.0055561,-0.6110586
 ,0.1013287,0.0792373,0.1671954,-0.144821,-0.1274462,0.1669482,-0.13383
 89,-0.1989247,0.0430265,-0.0353033,-0.0399426,-0.053144,0.0114205,0.04
 97248,-0.0636919,0.051482,0.0325668,-0.2199848,0.0277148,0.0199553,0.0
 618873,-0.1946829,-0.192954,0.065425,-0.196238,-0.3002029,1.6381191,-0
 .0593097,0.0476281,-0.1601827,0.9624487,0.8212664,-0.0867016,0.8311026
 ,1.4322226,-1.1433812,0.2050221,0.1977644,0.2853335,-0.6074222,-0.2902
 881,0.3048897,-0.2981395,-0.7360082,-0.7820358,-0.2547623,-0.380698,-0
 .2340565,-0.6064376,-0.3578698,-0.353243,-0.3599491,-0.8683017,1.79727
 27,-0.166298,-0.0658776,-0.1060894,0.436203,0.3130609,0.0142943,0.3072
 116,0.6037525,-1.2927616,0.0184901,-0.0686039,-0.1762642,-0.3984266,-0
 .1063224,-0.3279466,-0.0874422,-0.4796285,0.0386054,0.0074538,0.001540
 6,0.0142734,0.1201618,-0.0051116,0.0106224,-0.005773,0.118387,-0.00138
 06,-0.027982,-0.0503744,-0.0282935,0.089739,-0.0615572,-0.0507842,-0.0
 615283,0.0470676,0.0693465,0.0346646,0.0404626,0.0216359,0.0671932,-0.
 0789004,0.0231154,-0.0776354,0.0269059,0.1017865,-0.0253636,-0.0358759
 ,-0.0127485,0.1168191,-0.0101588,-0.0190829,-0.011381,0.1065232,0.2395
 328,0.0562765,0.0660671,0.0341351,0.3474082,0.0251672,0.0365815,0.0273
 153,0.370923,0.005013,0.0085444,0.0052541,0.0461174,-0.0388926,-0.1380
 909,0.0552759,-0.1417149,-0.1151431\Polar=128.2283777,-9.0047744,82.65
 79797,-5.151177,32.3386807,100.2724738\Quadrupole=-10.1603585,3.294943
 6,6.8654148,2.6942567,2.6545268,5.3696851\PG=C01 [X(C8H6O3)]\NImag=0\\
 0.73511727,-0.05107528,0.34932727,-0.01103471,0.26359443,0.49750416,-0
 .14512440,0.00778832,0.00256860,0.71224965,0.05475320,-0.16726090,-0.1
 3126513,0.00166509,0.34497713,0.06509801,-0.13582023,-0.23920211,0.058
 00047,0.27712582,0.51154670,0.01180212,0.05859922,0.07863085,-0.322994
 15,0.02044683,0.00222911,0.68216887,0.02383928,0.00041913,-0.00444726,
 0.06714534,-0.09834905,-0.03757954,-0.03731821,0.36194208,0.03235132,-
 0.00107702,0.00719905,0.06440394,-0.04210775,-0.11505118,0.00230075,0.
 28384921,0.52417307,-0.00696568,-0.01125563,-0.01506644,-0.05254914,0.
 00266247,-0.00234107,-0.23008772,-0.07285744,-0.11297701,0.65359073,-0
 .01283880,-0.02885263,-0.03149216,-0.03045767,0.02975736,0.02580591,-0
 .03263208,-0.12024474,-0.07626362,-0.00975583,0.34523284,-0.01717381,-
 0.03133851,-0.04952395,-0.04643807,0.02901771,0.04228791,-0.05942059,-
 0.08016437,-0.17783432,0.03679645,0.27207687,0.50598624,-0.05382686,-0
 .03195973,-0.04838179,-0.03749581,0.02533844,0.03053524,0.06098680,-0.
 00895283,-0.00660530,-0.13158033,0.00497711,0.00048506,0.73047766,0.00
 149564,0.03001227,0.03170849,0.02605043,-0.02073022,-0.01909076,-0.041
 05049,-0.01108124,-0.02696200,0.04245873,-0.15985179,-0.11788551,-0.00
 360651,0.34860935,-0.00383980,0.02846442,0.04383088,0.03148375,-0.0191
 5976,-0.02695082,-0.04934062,-0.02384947,-0.03035797,0.05038694,-0.121
 51877,-0.22512546,0.05160892,0.26577171,0.50758143,-0.23435491,-0.0272
 0461,-0.05245364,0.06099006,-0.03966606,-0.04753154,-0.07345160,-0.006
 74194,-0.01551198,0.00348405,0.05451475,0.07207525,-0.32865406,0.02263
 336,0.00459276,0.72172646,-0.07019657,-0.11404909,-0.06953040,-0.00642
 193,-0.01139986,-0.02451148,-0.00638864,-0.00519599,0.00051736,0.02094
 892,0.00195292,-0.00693090,0.06458870,-0.09700220,-0.03597991,-0.02394
 866,0.33088761,-0.10969428,-0.06536108,-0.16459301,-0.00326916,-0.0277
 3598,-0.03070048,-0.01504144,0.00048307,-0.00686526,0.02738597,-0.0036
 7722,0.00644444,0.06045166,-0.04004685,-0.11272826,0.02388839,0.243087
 16,0.47253596,0.01947318,-0.00942758,-0.01083812,-0.00269858,-0.004769
 57,-0.00737325,-0.00487389,-0.00048767,-0.00101476,-0.00723725,0.00267
 303,0.00190682,-0.00155523,0.01818766,0.02401873,-0.10242297,0.0094612
 5,0.01093068,0.96825102,-0.00417988,-0.01032056,-0.01657096,-0.0024341
 7,0.00614054,-0.00252242,-0.00064273,0.00009645,0.00153647,-0.00077314
 ,0.00870252,-0.00153843,0.01107915,-0.00355671,-0.00426806,0.01543847,
 -0.12850562,-0.05604591,-0.11680097,0.39221716,-0.00385563,-0.01707944
 ,-0.02129375,-0.00426383,-0.00274798,0.00378467,-0.00122101,0.00155098
 ,0.00084238,-0.00268317,-0.00120338,0.00793831,0.01455838,-0.00357769,
 -0.00289716,0.01889372,-0.05663939,-0.15884843,-0.08277344,0.22140151,
 0.50429555,-0.00662790,-0.00370900,-0.00560310,0.00054180,0.00115544,0
 .00167267,0.00011907,0.00005553,0.00007116,-0.00014775,0.00072498,0.00
 116134,0.00325360,0.00172526,0.00237154,-0.02484055,0.01964710,0.02162
 787,-0.67642399,0.15598256,0.14995353,0.81113511,0.00179152,-0.0001193
 3,-0.00027215,0.00048427,-0.00021194,0.00089126,0.00101533,-0.00019603
 ,-0.00035968,0.00185467,-0.00258573,-0.00036683,-0.00301526,-0.0006415
 8,-0.00445780,0.03130569,0.00593585,-0.01831663,0.15033153,-0.13490629
 ,-0.05841914,-0.17188107,0.10280604,0.00172287,-0.00080518,-0.00068902
 ,0.00077933,0.00095603,0.00050211,0.00134866,-0.00045262,-0.00032384,0
 .00266686,-0.00047673,-0.00255059,-0.00394099,-0.00399948,-0.00322003,
 0.03714800,-0.01944089,-0.00031977,0.14243467,-0.05787504,-0.14337821,
 -0.15356898,0.07527781,0.11914250,-0.00026239,0.00097545,0.00114794,0.
 00117278,0.00022241,0.00045513,0.00053041,-0.00007496,-0.00005633,0.00
 172277,-0.00095949,-0.00103119,-0.00430186,0.00123198,0.00119213,0.007
 52361,-0.00257564,-0.00386243,-0.20854269,-0.03201295,-0.05649310,-0.1
 0742358,-0.01590391,-0.03449254,0.42510356,0.00414959,-0.00076589,-0.0
 0233410,-0.00038524,-0.00126583,-0.00110110,-0.00068234,-0.00030043,-0
 .00057461,0.00038211,-0.00063948,0.00027081,-0.00072892,-0.00135849,-0
 .00231846,-0.02017432,-0.00580678,-0.02561900,-0.04831491,-0.11221284,
 -0.06653867,-0.00922100,0.03225751,0.00237307,-0.04312937,0.26696857,0
 .00537555,-0.00264244,-0.00170771,-0.00035427,-0.00104275,-0.00188871,
 -0.00086491,-0.00051573,-0.00068913,0.00075543,0.00014040,-0.00055484,
 -0.00142029,-0.00212855,-0.00264228,-0.02729618,-0.02390570,-0.0225265
 1,-0.07821122,-0.06495850,-0.15987574,-0.02558833,0.00172490,0.0296193
 1,-0.01991102,0.30016408,0.43625989,0.00014223,-0.00144621,-0.00181376
 ,0.00203062,-0.00230482,-0.00373164,-0.03386720,-0.00190634,-0.0058859
 1,-0.17574723,0.02791887,0.02772115,-0.01323540,0.01578883,0.01942861,
 0.00854718,-0.00084355,-0.00104391,0.00141705,0.00428100,0.00579076,0.
 00096094,-0.00210937,-0.00268532,-0.00188513,-0.00206623,-0.00293233,0
 .79073454,-0.00152445,-0.00202997,-0.00150824,-0.00394423,0.00522684,-
 0.00522456,-0.01263355,0.00562640,0.00539499,0.04373821,-0.10268236,-0
 .02830209,0.02141918,-0.00066803,-0.00305704,0.00208454,0.00202624,-0.
 00739123,0.00145097,0.00038002,-0.00000364,-0.00003597,-0.00036869,-0.
 00007686,-0.00027823,0.00006497,0.00009298,0.10680625,0.39901054,-0.00
 191835,-0.00150065,-0.00319212,-0.00591377,-0.00506545,0.00154601,-0.0
 2016814,0.00643447,0.00726600,0.04877917,-0.02983445,-0.11323285,0.026
 92467,-0.00360219,0.00100230,0.00285467,-0.00767554,-0.00221256,0.0020
 2206,0.00027075,0.00104545,0.00007573,-0.00027784,-0.00067641,-0.00055
 086,-0.00008039,-0.00018577,0.20018620,0.28444530,0.59129152,-0.001026
 96,-0.00048423,-0.00074922,-0.00357165,0.00029835,0.00025461,-0.000276
 64,0.00649350,0.00834963,-0.07002035,-0.01314423,-0.02616801,0.0026955
 3,-0.00513032,-0.00652904,-0.00138804,-0.00003474,-0.00009384,-0.00038
 244,-0.00272212,-0.00367053,-0.00061010,0.00124635,0.00159958,0.001124
 76,0.00137997,0.00193683,-0.50911432,-0.18316901,-0.28709668,0.5800264
 5,0.00058925,0.00050871,0.00066850,0.00062144,-0.00099417,0.00152845,0
 .00270075,0.00184808,-0.00097235,-0.00884438,0.02245115,0.00332019,0.0
 0111759,-0.00287334,-0.00316751,-0.00176520,0.00042897,0.00159433,-0.0
 0082143,-0.00049464,-0.00085709,0.00015838,0.00023556,0.00031608,0.000
 48300,0.00032013,0.00033393,-0.17950182,-0.16359020,-0.15035606,0.2091
 1465,0.13859528,0.00068025,0.00056446,0.00086692,0.00068425,0.00149694
 ,-0.00003736,0.00329971,-0.00060410,0.00229075,-0.02044121,0.00290287,
 0.02119477,0.00178969,-0.00377394,-0.00526367,-0.00239805,0.00176221,0
 .00121670,-0.00113947,-0.00104141,-0.00140816,0.00015074,0.00042162,0.
 00058576,0.00074208,0.00042084,0.00073715,-0.28221576,-0.15071283,-0.2
 9179576,0.33239239,0.17307481,0.28653800,-0.31894878,0.06227010,0.0561
 8508,0.00029301,-0.00013665,-0.00072349,0.00128130,0.00059027,0.000149
 25,0.00080892,-0.00043606,-0.00044237,-0.00156266,-0.00185488,-0.00320
 220,-0.01762614,0.00576488,0.00541907,-0.00272148,0.00088700,0.0012903
 0,0.00199873,0.00082641,0.00131936,0.00054145,-0.00002591,0.00000783,-
 0.00038146,0.00001400,0.00009727,0.00011129,0.00009809,0.00011491,0.33
 642252,0.06348763,-0.06399376,-0.02128428,0.01724963,0.00189735,-0.003
 62730,0.00096891,0.00300141,-0.00635720,-0.00049988,-0.00079225,-0.000
 28265,-0.00181230,0.00283835,-0.00437691,-0.01069104,0.00816306,0.0023
 1813,-0.00187673,-0.00225942,0.00193271,0.00081029,-0.00081686,-0.0006
 5992,0.00086422,0.00030805,0.00035304,0.00010421,-0.00083589,0.0004844
 9,-0.00004890,0.00023415,-0.00005654,-0.06810870,0.05457020,0.05780728
 ,-0.02140168,-0.06627211,0.02242465,-0.00531367,0.00097832,0.00065314,
 -0.00639392,-0.00060281,-0.00052736,-0.00027621,-0.00103524,-0.0031452
 7,-0.00438120,-0.00014424,-0.01649169,0.00391319,0.00925390,-0.0023896
 6,0.00220142,-0.00114885,0.00129833,-0.00065837,-0.00101303,0.00119285
 ,0.00026638,0.00057666,0.00021744,0.00047575,-0.00053770,-0.00008081,-
 0.00004230,0.00020890,-0.06077027,0.02880495,0.06043271,0.00969303,0.0
 0389108,0.00572158,-0.21114585,-0.07791128,-0.12034864,-0.01649840,-0.
 01236472,-0.01842468,-0.00450105,0.00254706,0.00226010,-0.00033705,0.0
 0064275,0.00088212,0.00092492,0.00159970,0.00148673,0.00046493,0.00017
 287,0.00024455,-0.00003139,-0.00004854,-0.00007099,-0.00002764,0.00010
 508,0.00015117,0.00043131,-0.00092937,-0.00122833,-0.00108438,0.000026
 17,-0.00004465,0.00052789,-0.00053304,-0.00024813,0.22059095,-0.014526
 43,-0.00261408,-0.01036719,-0.07785591,-0.08775434,-0.07142415,0.00610
 407,0.00655434,0.00434262,0.00200628,0.00461151,-0.00320555,0.00067605
 ,-0.00066009,-0.00000249,0.00188815,0.00298807,-0.00589779,-0.00104740
 ,0.00036999,-0.00002900,0.00025736,-0.00006773,-0.00011117,0.00003173,
 -0.00040304,-0.00034302,0.00017414,0.00044178,0.00015395,0.00019204,-0
 .00019579,0.00011150,-0.00005199,-0.00228847,0.00258198,0.08288462,0.0
 8196229,-0.01879971,-0.00858127,-0.00913356,-0.12027489,-0.07142947,-0
 .14654406,0.00616477,0.00255171,0.00773239,0.00153990,-0.00315292,0.00
 311661,0.00092648,-0.00000573,-0.00052680,0.00187117,-0.00592604,-0.00
 015278,-0.00138024,0.00008924,0.00030075,0.00033633,-0.00014076,-0.000
 12047,0.00005347,-0.00033580,-0.00058524,0.00024083,0.00004695,0.00042
 465,0.00017629,0.00009539,-0.00012141,0.00039226,0.00253535,-0.0008179
 7,0.12915132,0.08157279,0.14786127,-0.00566718,0.00148904,0.00074240,-
 0.00095505,0.01820730,0.02362964,-0.07635032,0.03943935,0.04909256,0.0
 1075028,-0.01242906,-0.01595465,-0.00328202,-0.00155016,-0.00301863,-0
 .00145804,-0.00025904,-0.00043498,-0.00037967,-0.00005318,0.00001125,0
 .00026377,0.00007098,0.00010304,0.00018155,0.00002754,0.00004767,0.000
 26583,-0.00226435,-0.00254534,0.00067568,0.00085145,0.00111819,-0.0000
 1844,0.00079088,0.00109331,0.00104516,-0.00058621,-0.00030854,0.074967
 16,0.00147880,0.00495206,-0.00274562,0.00003020,0.00126766,-0.00544033
 ,0.04006836,-0.14619467,-0.13602743,0.00322442,-0.00283563,-0.00962429
 ,-0.00180846,0.00385748,-0.00377922,-0.00027541,-0.00004957,0.00061145
 ,-0.00005659,-0.00082448,0.00052944,0.00002583,0.00008061,-0.00012404,
 0.00002925,0.00000733,-0.00007859,0.00187547,-0.00298887,0.00229445,-0
 .00048030,0.00066580,-0.00027338,-0.00012174,-0.00039475,0.00004144,-0
 .00008773,-0.00220354,0.00214607,-0.04364655,0.14453425,0.00072889,-0.
 00274447,0.00353858,-0.00057156,-0.00367789,0.00040378,0.04993046,-0.1
 3608828,-0.21745703,0.00488613,-0.01114253,-0.00973371,-0.00336294,-0.
 00375396,0.00124018,-0.00045656,0.00061294,0.00024294,0.00000669,0.000
 52981,-0.00052014,0.00004296,-0.00011961,0.00002051,0.00004989,-0.0000
 7873,-0.00003154,0.00296674,0.00189293,-0.00176752,-0.00065518,-0.0001
 4422,0.00058053,-0.00012172,0.00012989,-0.00027361,0.00035508,0.002097
 76,-0.00099438,-0.05343284,0.15262945,0.22475010,-0.00411144,0.0022845
 0,0.00193986,-0.00015361,0.00045485,0.00069381,0.00007943,0.00170836,0
 .00161719,0.01114508,0.00199750,0.00322637,-0.21526670,-0.07781264,-0.
 12029662,-0.01490630,-0.01110133,-0.01669010,-0.00174327,-0.00155191,-
 0.00179399,0.00110815,0.00012064,0.00020011,0.00101534,0.00013328,0.00
 025325,-0.00014753,-0.00018529,0.00014627,-0.00089275,0.00027401,0.000
 28405,-0.00066040,-0.00061514,-0.00089530,-0.00000169,-0.00010438,-0.0
 0002809,0.00035741,0.00036870,0.00050766,0.22358956,0.00233694,0.00443
 419,-0.00352178,0.00042277,-0.00083236,0.00034903,0.00184521,0.0025619
 3,-0.00554172,-0.01357832,-0.00161771,-0.01052062,-0.07881548,-0.08854
 144,-0.06818854,0.00516742,0.00728178,0.00381852,0.00009480,-0.0022504
 6,0.00307826,-0.00043475,0.00041435,-0.00042333,0.00068988,-0.00131451
 ,-0.00199740,-0.00190667,-0.00296819,0.00145567,0.00039823,0.00076698,
 0.00113910,0.00035125,0.00030345,0.00026940,-0.00010087,-0.00071791,0.
 00055946,-0.00066733,-0.00014159,-0.00049953,0.08410876,0.08239277,0.0
 0200955,-0.00352692,0.00274863,0.00065102,0.00035232,-0.00053151,0.001
 79964,-0.00555493,-0.00036280,-0.01751066,-0.00901053,-0.00839898,-0.1
 2163367,-0.06809125,-0.14551595,0.00497153,0.00224084,0.00825522,0.000
 39868,0.00291890,-0.00063042,-0.00053926,-0.00036962,0.00015625,0.0009
 9417,-0.00205135,-0.00239965,-0.00214548,0.00162251,-0.00224828,0.0004
 4931,0.00112701,0.00148459,0.00039129,0.00017569,0.00039858,-0.0000234
 0,0.00055914,-0.00040330,-0.00087175,-0.00039903,-0.00043087,0.1309045
 1,0.07998287,0.14762642,0.00067215,-0.00059418,-0.00077782,-0.00032007
 ,-0.00015305,-0.00020082,-0.00014723,0.00009186,0.00010654,0.00015916,
 0.00012729,0.00017424,-0.00046641,0.00026784,0.00033181,-0.00474921,-0
 .00122441,-0.00253769,0.01971755,-0.02643127,-0.03368229,-0.00305805,0
 .00368392,0.00517090,-0.11653861,0.11844702,0.14790711,0.00031685,-0.0
 0001070,0.00001366,-0.00021671,-0.00004053,-0.00006988,-0.00003675,-0.
 00004126,-0.00007562,0.00003007,-0.00006165,-0.00007297,0.00001925,0.0
 0001291,0.00002098,0.00055666,0.00004150,0.00011985,0.10408500,0.00034
 468,0.00003147,-0.00063806,-0.00038853,-0.00016904,0.00020218,0.000062
 28,0.00008274,0.00009611,-0.00000876,0.00012901,0.00002356,-0.00025687
 ,0.00019417,0.00051328,-0.00218186,0.00324877,-0.00200637,0.00144878,-
 0.01243398,-0.02183167,0.00454463,-0.00178991,0.00575140,0.09038789,-0
 .17579225,-0.20509900,0.00029814,-0.00003118,-0.00005131,-0.00020160,-
 0.00003855,-0.00000065,-0.00006984,0.00006548,-0.00015414,0.00002538,-
 0.00005957,0.00000827,0.00000087,-0.00000397,0.00002130,0.00013310,-0.
 00006122,0.00007790,-0.09412443,0.18660153,0.00047247,-0.00072929,-0.0
 0038973,-0.00051488,0.00022501,-0.00009933,0.00006732,0.00009908,0.000
 15352,-0.00000685,0.00003667,0.00015885,-0.00036715,0.00056443,0.00050
 600,-0.00381312,-0.00191144,0.00167906,0.00344952,-0.02454276,-0.02828
 367,0.00631528,0.00566880,0.00238392,0.11053923,-0.20237356,-0.2739974
 6,0.00042494,-0.00008128,-0.00003793,-0.00028439,0.00001498,-0.0000603
 9,-0.00011366,-0.00015134,-0.00003644,0.00004293,-0.00000022,-0.000060
 01,0.00000496,0.00002247,0.00001049,0.00024198,0.00006901,0.00000538,-
 0.11643694,0.22306581,0.29802899,0.00001654,-0.00014125,-0.00021773,-0
 .00026962,-0.00026294,-0.00031824,0.00157916,0.00134062,0.00203362,-0.
 00282450,0.01717264,0.02082190,-0.00584920,0.00052249,-0.00007041,0.00
 065555,0.00098397,0.00147746,-0.00034226,-0.00023875,-0.00030548,-0.00
 021787,0.00022684,0.00026544,0.00006566,0.00010366,0.00014370,-0.07046
 827,0.02946200,0.03832178,0.00395063,-0.02506140,-0.03494726,-0.000029
 00,-0.00004878,-0.00006288,-0.00008081,0.00001952,0.00001162,-0.000415
 37,-0.00063716,-0.00089466,0.00003206,0.00004664,0.00003467,-0.0000236
 2,-0.00001384,-0.00002164,0.07422090,0.00007489,0.00032111,0.00000589,
 0.00043018,-0.00029918,0.00043923,-0.00046292,-0.00057041,0.00050664,0
 .00029760,0.00726500,-0.01454939,0.00176014,0.00145352,-0.00062546,-0.
 00038328,-0.00090417,0.00018540,-0.00004519,-0.00014168,0.00043420,0.0
 0019444,-0.00002585,-0.00022915,0.00001875,-0.00006704,-0.00009766,0.0
 3483811,-0.13661343,-0.09709519,-0.01370763,0.00213188,-0.02543150,0.0
 0000379,-0.00000010,0.00006699,0.00008084,0.00003657,-0.00003322,0.000
 57846,0.00027189,0.00033515,-0.00021300,0.00028993,-0.00005355,0.00000
 913,0.00002649,0.00002362,-0.02347427,0.12682547,0.00007011,-0.0000151
 2,0.00030884,0.00060442,0.00037199,-0.00004394,-0.00036771,0.00068169,
 -0.00011282,-0.00164309,-0.01291419,0.00086280,0.00157731,-0.00074552,
 0.00121185,-0.00034275,0.00031800,-0.00068117,-0.00004770,0.00041538,0
 .00007742,0.00022219,-0.00022596,-0.00011899,0.00003058,-0.00008940,-0
 .00010845,0.04547744,-0.09761362,-0.18668903,-0.01983095,-0.02653414,-
 0.01701732,0.00000708,0.00006189,0.00003295,0.00009324,-0.00003916,0.0
 0002430,0.00072373,0.00021717,0.00042170,-0.00031097,-0.00002840,0.000
 24668,0.00000895,0.00002139,0.00003877,-0.02627189,0.13611800,0.201546
 39\\-0.00007713,-0.00005362,-0.00007633,0.00021996,-0.00006411,-0.0000
 6627,-0.00044571,-0.00004751,-0.00010568,0.00005546,0.00018819,0.00025
 988,0.00005832,-0.00004011,-0.00004530,0.00016196,0.00001269,0.0000538
 4,-0.00029511,0.00030852,0.00030922,-0.00005638,-0.00014166,-0.0001664
 4,0.00022405,-0.00007555,-0.00005707,0.00000272,-0.00005908,-0.0000981
 3,0.00009807,0.00002083,0.00004413,-0.00007661,0.00007217,0.00008886,-
 0.00007792,-0.00002634,-0.00004292,0.00008975,-0.00003954,-0.00004359,
 0.00008440,0.00005243,0.00007833,-0.00000294,-0.00011709,-0.00015584,0
 .00003711,0.00000977,0.00002331\\\@
 The archive entry for this job was punched.


 ACHIEVEMENT--  THE MAN WHO ROWS THE BOAT GENERALLY 
                DOESN'T HAVE TIME TO ROCK IT.

                   -- FROM THE BACK OF A SUGAR PACKET
 Job cpu time:       0 days 18 hours 35 minutes 15.8 seconds.
 Elapsed time:       0 days  0 hours 27 minutes 53.8 seconds.
 File lengths (MBytes):  RWF=    490 Int=      0 D2E=      0 Chk=     38 Scr=      1
 Normal termination of Gaussian 16 at Tue Sep  6 16:58:58 2022.
