 Entering Gaussian System, Link 0=g16
 Initial command:
 /usr/local/gaussian16c01/g16/l1.exe "/scr/dhuang/Gau-114499.inp" -scrdir="/scr/dhuang/"
 Entering Link 1 = /usr/local/gaussian16c01/g16/l1.exe PID=    114501.
  
 Copyright (c) 1988-2019, Gaussian, Inc.  All Rights Reserved.
  
 This is part of the Gaussian(R) 16 program.  It is based on
 the Gaussian(R) 09 system (copyright 2009, Gaussian, Inc.),
 the Gaussian(R) 03 system (copyright 2003, Gaussian, Inc.),
 the Gaussian(R) 98 system (copyright 1998, Gaussian, Inc.),
 the Gaussian(R) 94 system (copyright 1995, Gaussian, Inc.),
 the Gaussian 92(TM) system (copyright 1992, Gaussian, Inc.),
 the Gaussian 90(TM) system (copyright 1990, Gaussian, Inc.),
 the Gaussian 88(TM) system (copyright 1988, Gaussian, Inc.),
 the Gaussian 86(TM) system (copyright 1986, Carnegie Mellon
 University), and the Gaussian 82(TM) system (copyright 1983,
 Carnegie Mellon University). Gaussian is a federally registered
 trademark of Gaussian, Inc.
  
 This software contains proprietary and confidential information,
 including trade secrets, belonging to Gaussian, Inc.
  
 This software is provided under written license and may be
 used, copied, transmitted, or stored only in accord with that
 written license.
  
 The following legend is applicable only to US Government
 contracts under FAR:
  
                    RESTRICTED RIGHTS LEGEND
  
 Use, reproduction and disclosure by the US Government is
 subject to restrictions as set forth in subparagraphs (a)
 and (c) of the Commercial Computer Software - Restricted
 Rights clause in FAR 52.227-19.
  
 Gaussian, Inc.
 340 Quinnipiac St., Bldg. 40, Wallingford CT 06492
  
  
 ---------------------------------------------------------------
 Warning -- This program may not be used in any manner that
 competes with the business of Gaussian, Inc. or will provide
 assistance to any competitor of Gaussian, Inc.  The licensee
 of this program is prohibited from giving any competitor of
 Gaussian, Inc. access to this program.  By using this program,
 the user acknowledges that Gaussian, Inc. is engaged in the
 business of creating and licensing software in the field of
 computational chemistry and represents and warrants to the
 licensee that it is not a competitor of Gaussian, Inc. and that
 it will not use this program in any manner prohibited above.
 ---------------------------------------------------------------
  

 Cite this work as:
 Gaussian 16, Revision C.01,
 M. J. Frisch, G. W. Trucks, H. B. Schlegel, G. E. Scuseria, 
 M. A. Robb, J. R. Cheeseman, G. Scalmani, V. Barone, 
 G. A. Petersson, H. Nakatsuji, X. Li, M. Caricato, A. V. Marenich, 
 J. Bloino, B. G. Janesko, R. Gomperts, B. Mennucci, H. P. Hratchian, 
 J. V. Ortiz, A. F. Izmaylov, J. L. Sonnenberg, D. Williams-Young, 
 F. Ding, F. Lipparini, F. Egidi, J. Goings, B. Peng, A. Petrone, 
 T. Henderson, D. Ranasinghe, V. G. Zakrzewski, J. Gao, N. Rega, 
 G. Zheng, W. Liang, M. Hada, M. Ehara, K. Toyota, R. Fukuda, 
 J. Hasegawa, M. Ishida, T. Nakajima, Y. Honda, O. Kitao, H. Nakai, 
 T. Vreven, K. Throssell, J. A. Montgomery, Jr., J. E. Peralta, 
 F. Ogliaro, M. J. Bearpark, J. J. Heyd, E. N. Brothers, K. N. Kudin, 
 V. N. Staroverov, T. A. Keith, R. Kobayashi, J. Normand, 
 K. Raghavachari, A. P. Rendell, J. C. Burant, S. S. Iyengar, 
 J. Tomasi, M. Cossi, J. M. Millam, M. Klene, C. Adamo, R. Cammi, 
 J. W. Ochterski, R. L. Martin, K. Morokuma, O. Farkas, 
 J. B. Foresman, and D. J. Fox, Gaussian, Inc., Wallingford CT, 2019.
 
 ******************************************
 Gaussian 16:  ES64L-G16RevC.01  3-Jul-2019
                 6-Sep-2022 
 ******************************************
 %nprocshared=40
 Will use up to   40 processors via shared memory.
 %mem=10000MW
 %chk=3-CN.chk
 ------------------------------------
 # opt freq M062x/aug-cc-pvtz pop=nbo
 ------------------------------------
 1/18=20,19=15,26=3,38=1/1,3;
 2/9=110,12=2,17=6,18=5,40=1/2;
 3/5=16,6=1,7=10,11=2,25=1,30=1,71=1,74=-55/1,2,3;
 4//1;
 5/5=2,38=5/2;
 6/7=2,8=2,9=2,10=2,28=1,40=1/1,7;
 7//1,2,3,16;
 1/18=20,19=15,26=3/3(2);
 2/9=110/2;
 99//99;
 2/9=110/2;
 3/5=16,6=1,7=10,11=2,25=1,30=1,71=1,74=-55/1,2,3;
 4/5=5,16=3,69=1/1;
 5/5=2,38=5/2;
 7//1,2,3,16;
 1/18=20,19=15,26=3/3(-5);
 2/9=110/2;
 6/7=2,8=2,9=2,10=2,19=2,28=1,40=1/1,7;
 99/9=1/99;
 -----------------
 3-CN_benzoic-acid
 -----------------
 Symbolic Z-matrix:
 Charge =  0 Multiplicity = 1
 C                    -1.9385   -0.3374   -0.5952 
 C                    -1.6128   -1.1346   -1.625 
 C                    -0.3275   -1.4199   -1.8799 
 C                     0.6357   -0.9042   -1.0999 
 C                     0.3048   -0.1062   -0.0697 
 C                    -0.9831    0.1874    0.1962 
 C                    -1.297     1.        1.2476 
 O                    -2.4376    1.2978    1.5332 
 O                    -0.3498    1.5379    2.0556 
 C                     1.8984   -1.1828   -1.3482 
 N                     3.01     -1.4262   -1.5642 
 H                    -3.01     -0.1356   -0.4307 
 H                    -2.4046   -1.5583   -2.266 
 H                    -0.0751   -2.0767   -2.7299 
 H                     1.1195    0.3017    0.5525 
 H                    -0.7937    2.0767    2.7299 
 

 GradGradGradGradGradGradGradGradGradGradGradGradGradGradGradGradGradGrad
 Berny optimization.
 Initialization pass.
                           ----------------------------
                           !    Initial Parameters    !
                           ! (Angstroms and Degrees)  !
 --------------------------                            --------------------------
 ! Name  Definition              Value          Derivative Info.                !
 --------------------------------------------------------------------------------
 ! R1    R(1,2)                  1.3424         estimate D2E/DX2                !
 ! R2    R(1,6)                  1.347          estimate D2E/DX2                !
 ! R3    R(1,12)                 1.1027         estimate D2E/DX2                !
 ! R4    R(2,3)                  1.341          estimate D2E/DX2                !
 ! R5    R(2,13)                 1.1033         estimate D2E/DX2                !
 ! R6    R(3,4)                  1.3424         estimate D2E/DX2                !
 ! R7    R(3,14)                 1.1034         estimate D2E/DX2                !
 ! R8    R(4,5)                  1.3445         estimate D2E/DX2                !
 ! R9    R(4,10)                 1.3167         estimate D2E/DX2                !
 ! R10   R(5,6)                  1.3474         estimate D2E/DX2                !
 ! R11   R(5,15)                 1.1033         estimate D2E/DX2                !
 ! R12   R(6,7)                  1.3654         estimate D2E/DX2                !
 ! R13   R(7,8)                  1.2129         estimate D2E/DX2                !
 ! R14   R(7,9)                  1.3562         estimate D2E/DX2                !
 ! R15   R(9,16)                 0.9706         estimate D2E/DX2                !
 ! R16   R(10,11)                1.1583         estimate D2E/DX2                !
 ! A1    A(2,1,6)              120.662          estimate D2E/DX2                !
 ! A2    A(2,1,12)             117.315          estimate D2E/DX2                !
 ! A3    A(6,1,12)             122.023          estimate D2E/DX2                !
 ! A4    A(1,2,3)              120.3108         estimate D2E/DX2                !
 ! A5    A(1,2,13)             119.9739         estimate D2E/DX2                !
 ! A6    A(3,2,13)             119.7153         estimate D2E/DX2                !
 ! A7    A(2,3,4)              119.704          estimate D2E/DX2                !
 ! A8    A(2,3,14)             119.4908         estimate D2E/DX2                !
 ! A9    A(4,3,14)             120.8052         estimate D2E/DX2                !
 ! A10   A(3,4,5)              119.7779         estimate D2E/DX2                !
 ! A11   A(3,4,10)             119.8169         estimate D2E/DX2                !
 ! A12   A(5,4,10)             120.4052         estimate D2E/DX2                !
 ! A13   A(4,5,6)              121.0498         estimate D2E/DX2                !
 ! A14   A(4,5,15)             118.0228         estimate D2E/DX2                !
 ! A15   A(6,5,15)             120.9274         estimate D2E/DX2                !
 ! A16   A(1,6,5)              118.4956         estimate D2E/DX2                !
 ! A17   A(1,6,7)              121.4135         estimate D2E/DX2                !
 ! A18   A(5,6,7)              120.0909         estimate D2E/DX2                !
 ! A19   A(6,7,8)              122.9303         estimate D2E/DX2                !
 ! A20   A(6,7,9)              122.2923         estimate D2E/DX2                !
 ! A21   A(8,7,9)              114.7774         estimate D2E/DX2                !
 ! A22   A(7,9,16)             108.3399         estimate D2E/DX2                !
 ! A23   L(4,10,11,15,-1)      179.8485         estimate D2E/DX2                !
 ! A24   L(4,10,11,15,-2)      179.9961         estimate D2E/DX2                !
 ! D1    D(6,1,2,3)              0.0079         estimate D2E/DX2                !
 ! D2    D(6,1,2,13)          -179.9973         estimate D2E/DX2                !
 ! D3    D(12,1,2,3)           179.9997         estimate D2E/DX2                !
 ! D4    D(12,1,2,13)           -0.0056         estimate D2E/DX2                !
 ! D5    D(2,1,6,5)             -0.0019         estimate D2E/DX2                !
 ! D6    D(2,1,6,7)            179.9986         estimate D2E/DX2                !
 ! D7    D(12,1,6,5)          -179.9933         estimate D2E/DX2                !
 ! D8    D(12,1,6,7)             0.0072         estimate D2E/DX2                !
 ! D9    D(1,2,3,4)             -0.0091         estimate D2E/DX2                !
 ! D10   D(1,2,3,14)          -179.9995         estimate D2E/DX2                !
 ! D11   D(13,2,3,4)           179.9961         estimate D2E/DX2                !
 ! D12   D(13,2,3,14)            0.0058         estimate D2E/DX2                !
 ! D13   D(2,3,4,5)              0.0044         estimate D2E/DX2                !
 ! D14   D(2,3,4,10)          -179.9963         estimate D2E/DX2                !
 ! D15   D(14,3,4,5)           179.9946         estimate D2E/DX2                !
 ! D16   D(14,3,4,10)           -0.0061         estimate D2E/DX2                !
 ! D17   D(3,4,5,6)              0.0016         estimate D2E/DX2                !
 ! D18   D(3,4,5,15)           179.9958         estimate D2E/DX2                !
 ! D19   D(10,4,5,6)          -179.9977         estimate D2E/DX2                !
 ! D20   D(10,4,5,15)           -0.0035         estimate D2E/DX2                !
 ! D21   D(4,5,6,1)             -0.0029         estimate D2E/DX2                !
 ! D22   D(4,5,6,7)            179.9966         estimate D2E/DX2                !
 ! D23   D(15,5,6,1)          -179.9968         estimate D2E/DX2                !
 ! D24   D(15,5,6,7)             0.0027         estimate D2E/DX2                !
 ! D25   D(1,6,7,8)             -0.0068         estimate D2E/DX2                !
 ! D26   D(1,6,7,9)           -179.9986         estimate D2E/DX2                !
 ! D27   D(5,6,7,8)            179.9937         estimate D2E/DX2                !
 ! D28   D(5,6,7,9)              0.0019         estimate D2E/DX2                !
 ! D29   D(6,7,9,16)          -179.9989         estimate D2E/DX2                !
 ! D30   D(8,7,9,16)             0.0087         estimate D2E/DX2                !
 --------------------------------------------------------------------------------
 Trust Radius=3.00D-01 FncErr=1.00D-07 GrdErr=1.00D-06 EigMax=2.50D+02 EigMin=1.00D-04
 Number of steps in this run=     80 maximum allowed number of steps=    100.
 GradGradGradGradGradGradGradGradGradGradGradGradGradGradGradGradGradGrad

                          Input orientation:                          
 ---------------------------------------------------------------------
 Center     Atomic      Atomic             Coordinates (Angstroms)
 Number     Number       Type             X           Y           Z
 ---------------------------------------------------------------------
      1          6           0       -1.938500   -0.337400   -0.595200
      2          6           0       -1.612800   -1.134600   -1.625000
      3          6           0       -0.327500   -1.419900   -1.879900
      4          6           0        0.635700   -0.904200   -1.099900
      5          6           0        0.304800   -0.106200   -0.069700
      6          6           0       -0.983100    0.187400    0.196200
      7          6           0       -1.297000    1.000000    1.247600
      8          8           0       -2.437600    1.297800    1.533200
      9          8           0       -0.349800    1.537900    2.055600
     10          6           0        1.898400   -1.182800   -1.348200
     11          7           0        3.010000   -1.426200   -1.564200
     12          1           0       -3.010000   -0.135600   -0.430700
     13          1           0       -2.404600   -1.558300   -2.266000
     14          1           0       -0.075100   -2.076700   -2.729900
     15          1           0        1.119500    0.301700    0.552500
     16          1           0       -0.793700    2.076700    2.729900
 ---------------------------------------------------------------------
                    Distance matrix (angstroms):
                    1          2          3          4          5
     1  C    0.000000
     2  C    1.342422   0.000000
     3  C    2.327570   1.341032   0.000000
     4  C    2.683746   2.320467   1.342423   0.000000
     5  C    2.315599   2.674650   2.324314   1.344474   0.000000
     6  C    1.347041   2.336873   2.706181   2.343497   1.347438
     7  C    2.365602   3.592781   4.071499   3.587766   2.350472
     8  O    2.730030   4.070761   4.846408   4.607298   3.472933
     9  O    3.614894   4.720619   4.923133   4.110017   2.765586
    10  C    4.000439   3.522423   2.300772   1.316694   2.309370
    11  N    5.158692   4.632387   3.352404   2.474946   3.360660
    12  H    1.102677   2.092014   3.308385   3.785459   3.334529
    13  H    2.121183   1.103336   2.117209   3.321304   3.777986
    14  H    3.324811   2.114918   1.103446   2.129998   3.332245
    15  H    3.328217   3.777556   3.312746   2.102066   1.103291
    16  H    4.265529   5.472525   5.804637   5.059280   3.716116
                    6          7          8          9         10
     6  C    0.000000
     7  C    1.365391   0.000000
     8  O    2.266303   1.212939   0.000000
     9  O    2.383755   1.356240   2.165516   0.000000
    10  C    3.544808   4.659761   5.766866   4.903312   0.000000
    11  N    4.652694   5.687083   6.833038   5.759956   1.158255
    12  H    2.146079   2.653422   2.497835   4.007362   5.102041
    13  H    3.336249   4.485205   4.753138   5.699551   4.415786
    14  H    3.809550   5.174904   5.928126   6.003483   2.569602
    15  H    2.135636   2.609647   3.821904   2.438512   2.534381
    16  H    3.166222   1.899949   2.177426   0.970584   5.873895
                   11         12         13         14         15
    11  N    0.000000
    12  H    6.260261   0.000000
    13  H    5.461489   2.399773   0.000000
    14  H    3.361525   4.203312   2.431154   0.000000
    15  H    3.322657   4.267398   4.880863   4.225873   0.000000
    16  H    6.721439   4.449230   6.384923   6.897574   3.398828
                   16
    16  H    0.000000
 Stoichiometry    C8H5NO2
 Framework group  C1[X(C8H5NO2)]
 Deg. of freedom    42
 Full point group                 C1      NOp   1
 Largest Abelian subgroup         C1      NOp   1
 Largest concise Abelian subgroup C1      NOp   1
                         Standard orientation:                         
 ---------------------------------------------------------------------
 Center     Atomic      Atomic             Coordinates (Angstroms)
 Number     Number       Type             X           Y           Z
 ---------------------------------------------------------------------
      1          6           0       -0.650276    1.515970   -0.000038
      2          6           0        0.576746    2.060501    0.000027
      3          6           0        1.664977    1.276844   -0.000038
      4          6           0        1.523388   -0.058092    0.000017
      5          6           0        0.292526   -0.599005    0.000048
      6          6           0       -0.808164    0.178215   -0.000009
      7          6           0       -2.048810   -0.391955   -0.000045
      8          8           0       -3.073071    0.257745    0.000016
      9          8           0       -2.228415   -1.736250    0.000010
     10          6           0        2.590351   -0.829630    0.000027
     11          7           0        3.527128   -1.510808   -0.000030
     12          1           0       -1.510187    2.206224    0.000026
     13          1           0        0.692901    3.157705    0.000047
     14          1           0        2.667057    1.738826    0.000026
     15          1           0        0.209816   -1.699192    0.000021
     16          1           0       -3.182029   -1.916954   -0.000048
 ---------------------------------------------------------------------
 Rotational constants (GHZ):           2.3130002           0.7958528           0.5921180
 Standard basis: Aug-CC-pVTZ (5D, 7F)
 There are   730 symmetry adapted cartesian basis functions of A   symmetry.
 There are   621 symmetry adapted basis functions of A   symmetry.
   621 basis functions,   927 primitive gaussians,   730 cartesian basis functions
    38 alpha electrons       38 beta electrons
       nuclear repulsion energy       542.3825658727 Hartrees.
 NAtoms=   16 NActive=   16 NUniq=   16 SFac= 1.00D+00 NAtFMM=   60 NAOKFM=F Big=F
 Integral buffers will be    131072 words long.
 Raffenetti 2 integral format.
 Two-electron integral symmetry is turned on.
 One-electron integrals computed using PRISM.
 NBasis=   621 RedAO= T EigKep=  1.58D-06  NBF=   621
 NBsUse=   618 1.00D-06 EigRej=  9.61D-07 NBFU=   618
 ExpMin= 2.53D-02 ExpMax= 1.53D+04 ExpMxC= 5.22D+02 IAcc=3 IRadAn=         5 AccDes= 0.00D+00
 Harris functional with IExCor= 1009 and IRadAn=       5 diagonalized for initial guess.
 HarFok:  IExCor= 1009 AccDes= 0.00D+00 IRadAn=         5 IDoV= 1 UseB2=F ITyADJ=14
 ICtDFT=  3500011 ScaDFX=  1.000000  1.000000  1.000000  1.000000
 FoFCou: FMM=F IPFlag=           0 FMFlag=      100000 FMFlg1=           0
         NFxFlg=           0 DoJE=T BraDBF=F KetDBF=T FulRan=T
         wScrn=  0.000000 ICntrl=       500 IOpCl=  0 I1Cent=   200000004 NGrid=           0
         NMat0=    1 NMatS0=      1 NMatT0=    0 NMatD0=    1 NMtDS0=    0 NMtDT0=    0
 Petite list used in FoFCou.
 Requested convergence on RMS density matrix=1.00D-08 within 128 cycles.
 Requested convergence on MAX density matrix=1.00D-06.
 Requested convergence on             energy=1.00D-06.
 No special actions if energy rises.
 SCF Done:  E(RM062X) =  -513.021676212     A.U. after   14 cycles
            NFock= 14  Conv=0.69D-08     -V/T= 2.0027

 **********************************************************************

            Population analysis using the SCF Density.

 **********************************************************************

 Orbital symmetries:
       Occupied  (A) (A) (A) (A) (A) (A) (A) (A) (A) (A) (A) (A)
                 (A) (A) (A) (A) (A) (A) (A) (A) (A) (A) (A) (A)
                 (A) (A) (A) (A) (A) (A) (A) (A) (A) (A) (A) (A)
                 (A) (A)
       Virtual   (A) (A) (A) (A) (A) (A) (A) (A) (A) (A) (A) (A)
                 (A) (A) (A) (A) (A) (A) (A) (A) (A) (A) (A) (A)
                 (A) (A) (A) (A) (A) (A) (A) (A) (A) (A) (A) (A)
                 (A) (A) (A) (A) (A) (A) (A) (A) (A) (A) (A) (A)
                 (A) (A) (A) (A) (A) (A) (A) (A) (A) (A) (A) (A)
                 (A) (A) (A) (A) (A) (A) (A) (A) (A) (A) (A) (A)
                 (A) (A) (A) (A) (A) (A) (A) (A) (A) (A) (A) (A)
                 (A) (A) (A) (A) (A) (A) (A) (A) (A) (A) (A) (A)
                 (A) (A) (A) (A) (A) (A) (A) (A) (A) (A) (A) (A)
                 (A) (A) (A) (A) (A) (A) (A) (A) (A) (A) (A) (A)
                 (A) (A) (A) (A) (A) (A) (A) (A) (A) (A) (A) (A)
                 (A) (A) (A) (A) (A) (A) (A) (A) (A) (A) (A) (A)
                 (A) (A) (A) (A) (A) (A) (A) (A) (A) (A) (A) (A)
                 (A) (A) (A) (A) (A) (A) (A) (A) (A) (A) (A) (A)
                 (A) (A) (A) (A) (A) (A) (A) (A) (A) (A) (A) (A)
                 (A) (A) (A) (A) (A) (A) (A) (A) (A) (A) (A) (A)
                 (A) (A) (A) (A) (A) (A) (A) (A) (A) (A) (A) (A)
                 (A) (A) (A) (A) (A) (A) (A) (A) (A) (A) (A) (A)
                 (A) (A) (A) (A) (A) (A) (A) (A) (A) (A) (A) (A)
                 (A) (A) (A) (A) (A) (A) (A) (A) (A) (A) (A) (A)
                 (A) (A) (A) (A) (A) (A) (A) (A) (A) (A) (A) (A)
                 (A) (A) (A) (A) (A) (A) (A) (A) (A) (A) (A) (A)
                 (A) (A) (A) (A) (A) (A) (A) (A) (A) (A) (A) (A)
                 (A) (A) (A) (A) (A) (A) (A) (A) (A) (A) (A) (A)
                 (A) (A) (A) (A) (A) (A) (A) (A) (A) (A) (A) (A)
                 (A) (A) (A) (A) (A) (A) (A) (A) (A) (A) (A) (A)
                 (A) (A) (A) (A) (A) (A) (A) (A) (A) (A) (A) (A)
                 (A) (A) (A) (A) (A) (A) (A) (A) (A) (A) (A) (A)
                 (A) (A) (A) (A) (A) (A) (A) (A) (A) (A) (A) (A)
                 (A) (A) (A) (A) (A) (A) (A) (A) (A) (A) (A) (A)
                 (A) (A) (A) (A) (A) (A) (A) (A) (A) (A) (A) (A)
                 (A) (A) (A) (A) (A) (A) (A) (A) (A) (A) (A) (A)
                 (A) (A) (A) (A) (A) (A) (A) (A) (A) (A) (A) (A)
                 (A) (A) (A) (A) (A) (A) (A) (A) (A) (A) (A) (A)
                 (A) (A) (A) (A) (A) (A) (A) (A) (A) (A) (A) (A)
                 (A) (A) (A) (A) (A) (A) (A) (A) (A) (A) (A) (A)
                 (A) (A) (A) (A) (A) (A) (A) (A) (A) (A) (A) (A)
                 (A) (A) (A) (A) (A) (A) (A) (A) (A) (A) (A) (A)
                 (A) (A) (A) (A) (A) (A) (A) (A) (A) (A) (A) (A)
                 (A) (A) (A) (A) (A) (A) (A) (A) (A) (A) (A) (A)
                 (A) (A) (A) (A) (A) (A) (A) (A) (A) (A) (A) (A)
                 (A) (A) (A) (A) (A) (A) (A) (A) (A) (A) (A) (A)
                 (A) (A) (A) (A) (A) (A) (A) (A) (A) (A) (A) (A)
                 (A) (A) (A) (A) (A) (A) (A) (A) (A) (A) (A) (A)
                 (A) (A) (A) (A) (A) (A) (A) (A) (A) (A) (A) (A)
                 (A) (A) (A) (A) (A) (A) (A) (A) (A) (A) (A) (A)
                 (A) (A) (A) (A) (A) (A) (A) (A) (A) (A) (A) (A)
                 (A) (A) (A) (A) (A) (A) (A) (A) (A) (A) (A) (A)
                 (A) (A) (A) (A)
 The electronic state is 1-A.
 Alpha  occ. eigenvalues --  -19.68174 -19.62375 -14.76488 -10.68898 -10.58861
 Alpha  occ. eigenvalues --  -10.58715 -10.58619 -10.58205 -10.58150 -10.57859
 Alpha  occ. eigenvalues --  -10.57347  -1.25453  -1.14547  -1.05953  -1.02265
 Alpha  occ. eigenvalues --   -0.94258  -0.91868  -0.80229  -0.77960  -0.72934
 Alpha  occ. eigenvalues --   -0.66834  -0.61611  -0.59905  -0.58466  -0.57655
 Alpha  occ. eigenvalues --   -0.56724  -0.53594  -0.51938  -0.50143  -0.46640
 Alpha  occ. eigenvalues --   -0.46180  -0.44649  -0.44643  -0.41218  -0.41031
 Alpha  occ. eigenvalues --   -0.37269  -0.36394  -0.34443
 Alpha virt. eigenvalues --   -0.06014  -0.03374  -0.01398  -0.00425   0.00734
 Alpha virt. eigenvalues --    0.01544   0.02089   0.02569   0.03439   0.04234
 Alpha virt. eigenvalues --    0.04873   0.05168   0.05497   0.05646   0.06058
 Alpha virt. eigenvalues --    0.06877   0.07125   0.07335   0.07912   0.08173
 Alpha virt. eigenvalues --    0.08773   0.09205   0.09324   0.09438   0.09805
 Alpha virt. eigenvalues --    0.10378   0.10716   0.11825   0.12018   0.12216
 Alpha virt. eigenvalues --    0.13096   0.13557   0.14273   0.15201   0.15329
 Alpha virt. eigenvalues --    0.15525   0.16026   0.17378   0.17736   0.18119
 Alpha virt. eigenvalues --    0.18133   0.18511   0.18986   0.19474   0.20116
 Alpha virt. eigenvalues --    0.20284   0.20722   0.21380   0.21558   0.21967
 Alpha virt. eigenvalues --    0.22437   0.22497   0.23275   0.23386   0.23893
 Alpha virt. eigenvalues --    0.25150   0.25462   0.26350   0.26800   0.27020
 Alpha virt. eigenvalues --    0.27901   0.28034   0.28690   0.29714   0.30034
 Alpha virt. eigenvalues --    0.31031   0.31210   0.31896   0.32273   0.32897
 Alpha virt. eigenvalues --    0.33031   0.33260   0.34387   0.34398   0.34570
 Alpha virt. eigenvalues --    0.34614   0.35753   0.36161   0.36387   0.37115
 Alpha virt. eigenvalues --    0.37496   0.38551   0.38917   0.38969   0.39777
 Alpha virt. eigenvalues --    0.39859   0.40016   0.40522   0.41048   0.41155
 Alpha virt. eigenvalues --    0.42272   0.42591   0.42974   0.43078   0.43841
 Alpha virt. eigenvalues --    0.44739   0.45276   0.46148   0.48022   0.48810
 Alpha virt. eigenvalues --    0.48813   0.49682   0.49719   0.51457   0.51462
 Alpha virt. eigenvalues --    0.52457   0.52621   0.54071   0.55127   0.55331
 Alpha virt. eigenvalues --    0.55593   0.56406   0.56735   0.56792   0.57668
 Alpha virt. eigenvalues --    0.58701   0.59250   0.59508   0.60849   0.61102
 Alpha virt. eigenvalues --    0.61722   0.62349   0.63362   0.64996   0.65453
 Alpha virt. eigenvalues --    0.66134   0.66528   0.67400   0.67725   0.68654
 Alpha virt. eigenvalues --    0.69622   0.69918   0.70008   0.70352   0.71415
 Alpha virt. eigenvalues --    0.72888   0.72997   0.73290   0.73420   0.73961
 Alpha virt. eigenvalues --    0.74776   0.75093   0.75156   0.76241   0.77059
 Alpha virt. eigenvalues --    0.77749   0.77751   0.78018   0.78972   0.79859
 Alpha virt. eigenvalues --    0.80795   0.81013   0.81478   0.82832   0.83457
 Alpha virt. eigenvalues --    0.83619   0.84044   0.84558   0.85178   0.85580
 Alpha virt. eigenvalues --    0.87179   0.87572   0.88293   0.88875   0.89133
 Alpha virt. eigenvalues --    0.89222   0.89348   0.89497   0.89927   0.90703
 Alpha virt. eigenvalues --    0.92412   0.92572   0.93353   0.93889   0.93981
 Alpha virt. eigenvalues --    0.94445   0.95546   0.96279   0.96858   0.97928
 Alpha virt. eigenvalues --    0.98172   0.98235   0.99366   1.00045   1.00710
 Alpha virt. eigenvalues --    1.01647   1.02398   1.03264   1.04474   1.05222
 Alpha virt. eigenvalues --    1.05567   1.06045   1.06313   1.06990   1.07189
 Alpha virt. eigenvalues --    1.08426   1.08789   1.08935   1.09996   1.10902
 Alpha virt. eigenvalues --    1.11487   1.12100   1.12289   1.13434   1.14254
 Alpha virt. eigenvalues --    1.14280   1.16911   1.18926   1.19250   1.19989
 Alpha virt. eigenvalues --    1.19995   1.21061   1.21576   1.23141   1.23189
 Alpha virt. eigenvalues --    1.25126   1.26442   1.27210   1.27475   1.28961
 Alpha virt. eigenvalues --    1.31220   1.31648   1.32055   1.32287   1.34013
 Alpha virt. eigenvalues --    1.34608   1.34648   1.34912   1.36590   1.38151
 Alpha virt. eigenvalues --    1.39314   1.40557   1.41835   1.42319   1.42813
 Alpha virt. eigenvalues --    1.43435   1.43580   1.46482   1.46933   1.47836
 Alpha virt. eigenvalues --    1.48517   1.49236   1.49886   1.52203   1.52656
 Alpha virt. eigenvalues --    1.53258   1.53575   1.53677   1.54943   1.55761
 Alpha virt. eigenvalues --    1.59252   1.60256   1.61473   1.61606   1.62750
 Alpha virt. eigenvalues --    1.63183   1.64222   1.65571   1.65954   1.66355
 Alpha virt. eigenvalues --    1.66760   1.67032   1.68171   1.69118   1.69875
 Alpha virt. eigenvalues --    1.71093   1.71614   1.72504   1.72956   1.74959
 Alpha virt. eigenvalues --    1.75915   1.77286   1.79145   1.80094   1.80586
 Alpha virt. eigenvalues --    1.81884   1.83246   1.84017   1.85474   1.86860
 Alpha virt. eigenvalues --    1.86962   1.87153   1.89591   1.89746   1.90217
 Alpha virt. eigenvalues --    1.91741   1.91754   1.92471   1.94179   1.94480
 Alpha virt. eigenvalues --    1.94692   1.98025   1.99032   1.99349   2.00043
 Alpha virt. eigenvalues --    2.02233   2.02388   2.03113   2.03715   2.07260
 Alpha virt. eigenvalues --    2.07703   2.09101   2.10700   2.11622   2.13989
 Alpha virt. eigenvalues --    2.15212   2.16131   2.17247   2.18249   2.18857
 Alpha virt. eigenvalues --    2.19732   2.20778   2.20876   2.21838   2.23632
 Alpha virt. eigenvalues --    2.25532   2.25672   2.27769   2.28603   2.29707
 Alpha virt. eigenvalues --    2.30834   2.33562   2.35787   2.36659   2.38674
 Alpha virt. eigenvalues --    2.39443   2.40368   2.41064   2.42903   2.43485
 Alpha virt. eigenvalues --    2.45975   2.47871   2.49592   2.49728   2.53218
 Alpha virt. eigenvalues --    2.55288   2.56047   2.56566   2.59976   2.62310
 Alpha virt. eigenvalues --    2.63855   2.66149   2.67835   2.69212   2.69494
 Alpha virt. eigenvalues --    2.74020   2.74290   2.78229   2.79340   2.80975
 Alpha virt. eigenvalues --    2.83964   2.84154   2.88322   2.88341   2.89785
 Alpha virt. eigenvalues --    2.93021   2.95704   2.96250   2.96688   2.97060
 Alpha virt. eigenvalues --    2.98739   2.98909   2.99762   3.02040   3.04144
 Alpha virt. eigenvalues --    3.06897   3.09893   3.10349   3.11137   3.13224
 Alpha virt. eigenvalues --    3.13312   3.14201   3.15864   3.16706   3.18147
 Alpha virt. eigenvalues --    3.19543   3.21265   3.22438   3.23168   3.23334
 Alpha virt. eigenvalues --    3.24225   3.26647   3.26749   3.27096   3.29212
 Alpha virt. eigenvalues --    3.30569   3.31936   3.32285   3.34093   3.35872
 Alpha virt. eigenvalues --    3.37404   3.37434   3.38740   3.40322   3.41748
 Alpha virt. eigenvalues --    3.42518   3.44203   3.44760   3.45667   3.45934
 Alpha virt. eigenvalues --    3.46474   3.49994   3.50716   3.52562   3.55174
 Alpha virt. eigenvalues --    3.55920   3.56133   3.57125   3.59247   3.59710
 Alpha virt. eigenvalues --    3.61756   3.63051   3.64117   3.65333   3.66009
 Alpha virt. eigenvalues --    3.66428   3.67857   3.68976   3.70316   3.70688
 Alpha virt. eigenvalues --    3.72768   3.74822   3.74993   3.76331   3.77286
 Alpha virt. eigenvalues --    3.79469   3.82136   3.83304   3.84459   3.84932
 Alpha virt. eigenvalues --    3.86554   3.87657   3.87829   3.88380   3.89082
 Alpha virt. eigenvalues --    3.91474   3.94232   3.94318   3.96602   3.96836
 Alpha virt. eigenvalues --    3.97692   3.99768   4.00265   4.00424   4.02043
 Alpha virt. eigenvalues --    4.02960   4.03384   4.06568   4.07434   4.09022
 Alpha virt. eigenvalues --    4.10227   4.11064   4.12995   4.13329   4.16799
 Alpha virt. eigenvalues --    4.18687   4.19278   4.19777   4.21694   4.23486
 Alpha virt. eigenvalues --    4.24951   4.28326   4.31281   4.32748   4.33095
 Alpha virt. eigenvalues --    4.35151   4.38482   4.38933   4.41975   4.42920
 Alpha virt. eigenvalues --    4.43286   4.45387   4.47845   4.49651   4.54353
 Alpha virt. eigenvalues --    4.56268   4.58206   4.59516   4.60141   4.60627
 Alpha virt. eigenvalues --    4.63647   4.64743   4.65925   4.66327   4.68138
 Alpha virt. eigenvalues --    4.69504   4.70362   4.71913   4.72339   4.75034
 Alpha virt. eigenvalues --    4.75406   4.76731   4.79166   4.81623   4.82351
 Alpha virt. eigenvalues --    4.86523   4.89557   4.90847   4.93438   4.95009
 Alpha virt. eigenvalues --    4.95736   4.97442   4.98112   4.99341   5.01824
 Alpha virt. eigenvalues --    5.04940   5.05450   5.05864   5.09796   5.10360
 Alpha virt. eigenvalues --    5.16435   5.19786   5.23455   5.23796   5.28972
 Alpha virt. eigenvalues --    5.31644   5.35044   5.35213   5.38594   5.41037
 Alpha virt. eigenvalues --    5.44787   5.44978   5.47730   5.53805   5.55418
 Alpha virt. eigenvalues --    5.71946   5.72571   5.83171   5.85658   5.91481
 Alpha virt. eigenvalues --    5.91823   5.95752   6.02822   6.04333   6.15093
 Alpha virt. eigenvalues --    6.22580   6.25880   6.28416   6.31002   6.33471
 Alpha virt. eigenvalues --    6.34526   6.36074   6.38897   6.42103   6.42301
 Alpha virt. eigenvalues --    6.53980   6.54591   6.57612   6.61512   6.70295
 Alpha virt. eigenvalues --    6.74208   6.77976   6.80133   6.81141   6.81529
 Alpha virt. eigenvalues --    6.86202   6.88213   6.90783   7.01911   7.07386
 Alpha virt. eigenvalues --    7.09606   7.12863   7.17614   7.32233   7.39493
 Alpha virt. eigenvalues --    7.51383   7.69648   7.88782   8.03834  15.41422
 Alpha virt. eigenvalues --   15.71644  16.92205  17.64568  17.72128  18.68629
 Alpha virt. eigenvalues --   19.61075  19.87437  20.67921  20.82394  21.42560
          Condensed to atoms (all electrons):
               1          2          3          4          5          6
     1  C    8.379807  -0.431307   0.358698  -0.659418   0.389883  -1.052696
     2  C   -0.431307   7.281288  -0.538424   0.417602  -0.527521   0.108389
     3  C    0.358698  -0.538424   8.358630  -1.031224   0.418504  -0.510456
     4  C   -0.659418   0.417602  -1.031224   7.220134  -1.138178   0.363790
     5  C    0.389883  -0.527521   0.418504  -1.138178   9.697357  -1.076236
     6  C   -1.052696   0.108389  -0.510456   0.363790  -1.076236   7.473874
     7  C   -0.326464   0.032628   0.059510   0.119995  -0.688258  -0.500233
     8  O    0.073551  -0.058893   0.016675  -0.050520   0.147356  -0.272389
     9  O   -0.003724  -0.017940   0.019109  -0.022751  -0.110072   0.137210
    10  C   -0.016164   0.070501  -0.642027  -0.359155  -0.858150   0.056581
    11  N    0.009383  -0.001644   0.039479   0.039653   0.147796   0.007521
    12  H    0.146267  -0.303680   0.071076  -0.010677  -0.080082  -0.167079
    13  H   -0.278789   0.560356  -0.146027   0.007035   0.005900   0.011925
    14  H    0.111159  -0.367259   0.410208  -0.321275   0.069820  -0.039575
    15  H    0.123392  -0.095731   0.079064  -0.496227   0.715683  -0.599137
    16  H   -0.013234   0.005889  -0.003801   0.007573  -0.013593  -0.000363
               7          8          9         10         11         12
     1  C   -0.326464   0.073551  -0.003724  -0.016164   0.009383   0.146267
     2  C    0.032628  -0.058893  -0.017940   0.070501  -0.001644  -0.303680
     3  C    0.059510   0.016675   0.019109  -0.642027   0.039479   0.071076
     4  C    0.119995  -0.050520  -0.022751  -0.359155   0.039653  -0.010677
     5  C   -0.688258   0.147356  -0.110072  -0.858150   0.147796  -0.080082
     6  C   -0.500233  -0.272389   0.137210   0.056581   0.007521  -0.167079
     7  C    7.159417  -0.048751  -0.049231  -0.087984   0.007325   0.138869
     8  O   -0.048751   9.352956  -0.117552   0.008704  -0.000546  -0.046347
     9  O   -0.049231  -0.117552   8.642927   0.021483  -0.000627   0.005005
    10  C   -0.087984   0.008704   0.021483   7.837649  -0.550407  -0.006528
    11  N    0.007325  -0.000546  -0.000627  -0.550407   8.368189   0.001500
    12  H    0.138869  -0.046347   0.005005  -0.006528   0.001500   1.036490
    13  H    0.009834  -0.006155  -0.001010  -0.001753  -0.001668  -0.064732
    14  H   -0.015029   0.002076   0.000914   0.160052  -0.023066  -0.012307
    15  H    0.010755   0.018752  -0.067938  -0.053065  -0.017675  -0.026297
    16  H    0.104629  -0.105117   0.142279  -0.004505   0.000142   0.000337
              13         14         15         16
     1  C   -0.278789   0.111159   0.123392  -0.013234
     2  C    0.560356  -0.367259  -0.095731   0.005889
     3  C   -0.146027   0.410208   0.079064  -0.003801
     4  C    0.007035  -0.321275  -0.496227   0.007573
     5  C    0.005900   0.069820   0.715683  -0.013593
     6  C    0.011925  -0.039575  -0.599137  -0.000363
     7  C    0.009834  -0.015029   0.010755   0.104629
     8  O   -0.006155   0.002076   0.018752  -0.105117
     9  O   -0.001010   0.000914  -0.067938   0.142279
    10  C   -0.001753   0.160052  -0.053065  -0.004505
    11  N   -0.001668  -0.023066  -0.017675   0.000142
    12  H   -0.064732  -0.012307  -0.026297   0.000337
    13  H    0.722951   0.019000   0.001134   0.000483
    14  H    0.019000   0.743018   0.014042  -0.000376
    15  H    0.001134   0.014042   1.367765  -0.004370
    16  H    0.000483  -0.000376  -0.004370   0.591411
 Mulliken charges:
               1
     1  C   -0.810344
     2  C   -0.134253
     3  C   -0.958996
     4  C    1.913644
     5  C   -1.100209
     6  C    2.058873
     7  C    0.072988
     8  O   -0.913800
     9  O   -0.578082
    10  C    0.424769
    11  N   -1.025356
    12  H    0.318185
    13  H    0.161516
    14  H    0.248598
    15  H    0.029854
    16  H    0.292615
 Sum of Mulliken charges =   0.00000
 Mulliken charges with hydrogens summed into heavy atoms:
               1
     1  C   -0.492160
     2  C    0.027263
     3  C   -0.710398
     4  C    1.913644
     5  C   -1.070355
     6  C    2.058873
     7  C    0.072988
     8  O   -0.913800
     9  O   -0.285467
    10  C    0.424769
    11  N   -1.025356
 Electronic spatial extent (au):  <R**2>=           1750.6502
 Charge=              0.0000 electrons
 Dipole moment (field-independent basis, Debye):
    X=             -1.4281    Y=              2.3378    Z=             -0.0001  Tot=              2.7395
 Quadrupole moment (field-independent basis, Debye-Ang):
   XX=            -78.1216   YY=            -57.5424   ZZ=            -62.9485
   XY=             15.2964   XZ=              0.0009   YZ=              0.0004
 Traceless Quadrupole moment (field-independent basis, Debye-Ang):
   XX=            -11.9174   YY=              8.6617   ZZ=              3.2557
   XY=             15.2964   XZ=              0.0009   YZ=              0.0004
 Octapole moment (field-independent basis, Debye-Ang**2):
  XXX=            -70.8924  YYY=             15.8544  ZZZ=              0.0001  XYY=            -26.4954
  XXY=             10.7723  XXZ=             -0.0005  XZZ=             -8.9911  YZZ=             -3.8495
  YYZ=              0.0005  XYZ=             -0.0010
 Hexadecapole moment (field-independent basis, Debye-Ang**3):
 XXXX=          -1874.6377 YYYY=           -585.3271 ZZZZ=            -64.3113 XXXY=            265.2899
 XXXZ=              0.0082 YYYX=             68.4377 YYYZ=              0.0026 ZZZX=              0.0000
 ZZZY=              0.0004 XXYY=           -371.1994 XXZZ=           -279.9298 YYZZ=           -123.8722
 XXYZ=              0.0021 YYXZ=              0.0019 ZZXY=              5.5209
 N-N= 5.423825658727D+02 E-N=-2.282025316000D+03  KE= 5.116540632704D+02
 ******************************Gaussian NBO Version 3.1******************************
             N A T U R A L   A T O M I C   O R B I T A L   A N D
          N A T U R A L   B O N D   O R B I T A L   A N A L Y S I S
 ******************************Gaussian NBO Version 3.1******************************
       /RESON  / : Allow strongly delocalized NBO set

 Analyzing the SCF density

 Job title: 3-CN_benzoic-acid                                               

 Storage needed:   1159527 in NPA,   1544729 in NBO (********** available)
 GSVD:  LWork=       51087 too small for GESVD, short by      614358 words or      614358 for optimal perf.


 NATURAL POPULATIONS:  Natural atomic orbital occupancies 
                                                          
   NAO  Atom  No  lang   Type(AO)    Occupancy      Energy
 ----------------------------------------------------------
     1    C    1  S      Cor( 1S)     1.99909     -10.41222
     2    C    1  S      Val( 2S)     0.94596      -0.20840
     3    C    1  S      Ryd( 4S)     0.00138       1.96860
     4    C    1  S      Ryd( 5S)     0.00012       2.73097
     5    C    1  S      Ryd( 3S)     0.00002       1.93141
     6    C    1  px     Val( 2p)     1.14626      -0.10528
     7    C    1  px     Ryd( 4p)     0.00468       1.92928
     8    C    1  px     Ryd( 3p)     0.00009       1.29198
     9    C    1  px     Ryd( 5p)     0.00008       2.38539
    10    C    1  py     Val( 2p)     1.08032      -0.08154
    11    C    1  py     Ryd( 4p)     0.00414       1.80816
    12    C    1  py     Ryd( 3p)     0.00005       1.24328
    13    C    1  py     Ryd( 5p)     0.00002       2.17955
    14    C    1  pz     Val( 2p)     0.90653      -0.14213
    15    C    1  pz     Ryd( 4p)     0.00065       1.00855
    16    C    1  pz     Ryd( 3p)     0.00003       0.79744
    17    C    1  pz     Ryd( 5p)     0.00006       1.42737
    18    C    1  dxy    Ryd( 3d)     0.00176       2.43750
    19    C    1  dxy    Ryd( 5d)     0.00017       3.88427
    20    C    1  dxy    Ryd( 4d)     0.00009       3.47984
    21    C    1  dxz    Ryd( 3d)     0.00042       1.48757
    22    C    1  dxz    Ryd( 5d)     0.00003       3.18041
    23    C    1  dxz    Ryd( 4d)     0.00003       1.60652
    24    C    1  dyz    Ryd( 3d)     0.00023       1.37889
    25    C    1  dyz    Ryd( 5d)     0.00007       3.14602
    26    C    1  dyz    Ryd( 4d)     0.00002       1.57353
    27    C    1  dx2y2  Ryd( 4d)     0.00207       3.80184
    28    C    1  dx2y2  Ryd( 5d)     0.00024       4.24285
    29    C    1  dx2y2  Ryd( 3d)     0.00006       2.03697
    30    C    1  dz2    Ryd( 3d)     0.00100       1.90022
    31    C    1  dz2    Ryd( 4d)     0.00008       4.01602
    32    C    1  dz2    Ryd( 5d)     0.00006       4.20818
    33    C    1  f(0)   Ryd( 4f)     0.00009       1.45907
    34    C    1  f(0)   Ryd( 5f)     0.00009       3.37571
    35    C    1  f(C1)  Ryd( 4f)     0.00043       1.94760
    36    C    1  f(C1)  Ryd( 5f)     0.00017       3.60856
    37    C    1  f(S1)  Ryd( 4f)     0.00042       1.81415
    38    C    1  f(S1)  Ryd( 5f)     0.00018       3.53384
    39    C    1  f(C2)  Ryd( 4f)     0.00020       1.44335
    40    C    1  f(C2)  Ryd( 5f)     0.00002       3.43383
    41    C    1  f(S2)  Ryd( 4f)     0.00018       1.58662
    42    C    1  f(S2)  Ryd( 5f)     0.00004       3.37702
    43    C    1  f(C3)  Ryd( 4f)     0.00099       2.02647
    44    C    1  f(C3)  Ryd( 5f)     0.00019       4.19450
    45    C    1  f(S3)  Ryd( 4f)     0.00049       2.68467
    46    C    1  f(S3)  Ryd( 5f)     0.00015       4.03014
 
    47    C    2  S      Cor( 1S)     1.99913     -10.40583
    48    C    2  S      Val( 2S)     0.94921      -0.22023
    49    C    2  S      Ryd( 4S)     0.00136       1.84759
    50    C    2  S      Ryd( 5S)     0.00006       2.91433
    51    C    2  S      Ryd( 3S)     0.00002       1.75367
    52    C    2  px     Val( 2p)     1.06434      -0.09385
    53    C    2  px     Ryd( 5p)     0.00375       1.70397
    54    C    2  px     Ryd( 3p)     0.00007       0.98397
    55    C    2  px     Ryd( 4p)     0.00002       1.40117
    56    C    2  py     Val( 2p)     1.18552      -0.11437
    57    C    2  py     Ryd( 4p)     0.00480       1.70529
    58    C    2  py     Ryd( 3p)     0.00003       1.41637
    59    C    2  py     Ryd( 5p)     0.00004       1.78751
    60    C    2  pz     Val( 2p)     0.99213      -0.15007
    61    C    2  pz     Ryd( 4p)     0.00057       1.01792
    62    C    2  pz     Ryd( 3p)     0.00004       0.95306
    63    C    2  pz     Ryd( 5p)     0.00003       1.21145
    64    C    2  dxy    Ryd( 4d)     0.00220       3.30171
    65    C    2  dxy    Ryd( 5d)     0.00023       3.47091
    66    C    2  dxy    Ryd( 3d)     0.00004       2.12478
    67    C    2  dxz    Ryd( 3d)     0.00033       1.51205
    68    C    2  dxz    Ryd( 5d)     0.00001       2.64046
    69    C    2  dxz    Ryd( 4d)     0.00002       1.82833
    70    C    2  dyz    Ryd( 3d)     0.00028       1.44431
    71    C    2  dyz    Ryd( 5d)     0.00005       2.71708
    72    C    2  dyz    Ryd( 4d)     0.00002       1.66811
    73    C    2  dx2y2  Ryd( 3d)     0.00189       2.36182
    74    C    2  dx2y2  Ryd( 5d)     0.00016       3.44306
    75    C    2  dx2y2  Ryd( 4d)     0.00007       2.83417
    76    C    2  dz2    Ryd( 3d)     0.00101       1.85740
    77    C    2  dz2    Ryd( 5d)     0.00007       3.91532
    78    C    2  dz2    Ryd( 4d)     0.00009       3.25709
    79    C    2  f(0)   Ryd( 5f)     0.00011       3.50905
    80    C    2  f(0)   Ryd( 4f)     0.00001       2.12520
    81    C    2  f(C1)  Ryd( 5f)     0.00028       3.79183
    82    C    2  f(C1)  Ryd( 4f)     0.00001       2.76321
    83    C    2  f(S1)  Ryd( 5f)     0.00015       3.70873
    84    C    2  f(S1)  Ryd( 4f)     0.00003       2.71474
    85    C    2  f(C2)  Ryd( 5f)     0.00001       3.69399
    86    C    2  f(C2)  Ryd( 4f)     0.00001       2.20880
    87    C    2  f(S2)  Ryd( 5f)     0.00001       3.60038
    88    C    2  f(S2)  Ryd( 4f)     0.00001       2.31720
    89    C    2  f(C3)  Ryd( 5f)     0.00009       4.40455
    90    C    2  f(C3)  Ryd( 4f)     0.00010       4.09060
    91    C    2  f(S3)  Ryd( 4f)     0.00013       4.27047
    92    C    2  f(S3)  Ryd( 5f)     0.00007       5.38977
 
    93    C    3  S      Cor( 1S)     1.99906     -10.41648
    94    C    3  S      Val( 2S)     0.94233      -0.20879
    95    C    3  S      Ryd( 4S)     0.00123       1.86564
    96    C    3  S      Ryd( 5S)     0.00016       2.55484
    97    C    3  S      Ryd( 3S)     0.00001       1.66931
    98    C    3  px     Val( 2p)     1.17124      -0.11609
    99    C    3  px     Ryd( 5p)     0.00430       1.82622
   100    C    3  px     Ryd( 3p)     0.00005       1.50828
   101    C    3  px     Ryd( 4p)     0.00006       1.67914
   102    C    3  py     Val( 2p)     1.04073      -0.08252
   103    C    3  py     Ryd( 5p)     0.00336       1.69599
   104    C    3  py     Ryd( 3p)     0.00011       1.22662
   105    C    3  py     Ryd( 4p)     0.00003       1.53818
   106    C    3  pz     Val( 2p)     0.92521      -0.15026
   107    C    3  pz     Ryd( 3p)     0.00071       1.02886
   108    C    3  pz     Ryd( 4p)     0.00005       1.03828
   109    C    3  pz     Ryd( 5p)     0.00002       1.12817
   110    C    3  dxy    Ryd( 3d)     0.00159       2.93023
   111    C    3  dxy    Ryd( 4d)     0.00025       3.22663
   112    C    3  dxy    Ryd( 5d)     0.00009       3.64958
   113    C    3  dxz    Ryd( 3d)     0.00032       1.54817
   114    C    3  dxz    Ryd( 5d)     0.00007       2.43278
   115    C    3  dxz    Ryd( 4d)     0.00001       2.18562
   116    C    3  dyz    Ryd( 3d)     0.00016       1.51078
   117    C    3  dyz    Ryd( 5d)     0.00013       2.53996
   118    C    3  dyz    Ryd( 4d)     0.00002       2.26245
   119    C    3  dx2y2  Ryd( 4d)     0.00183       3.20501
   120    C    3  dx2y2  Ryd( 3d)     0.00010       3.20090
   121    C    3  dx2y2  Ryd( 5d)     0.00002       3.45737
   122    C    3  dz2    Ryd( 3d)     0.00105       1.79990
   123    C    3  dz2    Ryd( 5d)     0.00008       4.05181
   124    C    3  dz2    Ryd( 4d)     0.00007       3.71044
   125    C    3  f(0)   Ryd( 5f)     0.00009       3.54286
   126    C    3  f(0)   Ryd( 4f)     0.00002       2.07437
   127    C    3  f(C1)  Ryd( 5f)     0.00016       3.73778
   128    C    3  f(C1)  Ryd( 4f)     0.00003       3.04494
   129    C    3  f(S1)  Ryd( 5f)     0.00019       3.76947
   130    C    3  f(S1)  Ryd( 4f)     0.00001       2.75173
   131    C    3  f(C2)  Ryd( 5f)     0.00001       3.65111
   132    C    3  f(C2)  Ryd( 4f)     0.00002       2.06456
   133    C    3  f(S2)  Ryd( 5f)     0.00001       3.67370
   134    C    3  f(S2)  Ryd( 4f)     0.00002       2.28269
   135    C    3  f(C3)  Ryd( 5f)     0.00006       4.56866
   136    C    3  f(C3)  Ryd( 4f)     0.00010       3.92183
   137    C    3  f(S3)  Ryd( 4f)     0.00012       4.44770
   138    C    3  f(S3)  Ryd( 5f)     0.00004       5.16012
 
   139    C    4  S      Cor( 1S)     1.99874     -10.39987
   140    C    4  S      Val( 2S)     0.86851      -0.11719
   141    C    4  S      Ryd( 3S)     0.00115       1.94133
   142    C    4  S      Ryd( 4S)     0.00009       2.77699
   143    C    4  S      Ryd( 5S)     0.00002       3.29099
   144    C    4  px     Val( 2p)     1.13562      -0.13128
   145    C    4  px     Ryd( 5p)     0.00460       2.34149
   146    C    4  px     Ryd( 4p)     0.00084       2.09708
   147    C    4  px     Ryd( 3p)     0.00004       1.05535
   148    C    4  py     Val( 2p)     1.14296      -0.13712
   149    C    4  py     Ryd( 5p)     0.00335       2.20052
   150    C    4  py     Ryd( 4p)     0.00056       1.97411
   151    C    4  py     Ryd( 3p)     0.00004       1.16079
   152    C    4  pz     Val( 2p)     1.07213      -0.16296
   153    C    4  pz     Ryd( 3p)     0.00182       0.79145
   154    C    4  pz     Ryd( 5p)     0.00020       1.13428
   155    C    4  pz     Ryd( 4p)     0.00001       0.86291
   156    C    4  dxy    Ryd( 3d)     0.00125       2.97104
   157    C    4  dxy    Ryd( 4d)     0.00008       3.77566
   158    C    4  dxy    Ryd( 5d)     0.00002       6.28017
   159    C    4  dxz    Ryd( 3d)     0.00012       1.90985
   160    C    4  dxz    Ryd( 4d)     0.00009       2.53309
   161    C    4  dxz    Ryd( 5d)     0.00001       2.75413
   162    C    4  dyz    Ryd( 3d)     0.00021       1.82355
   163    C    4  dyz    Ryd( 4d)     0.00007       2.40832
   164    C    4  dyz    Ryd( 5d)     0.00003       2.82835
   165    C    4  dx2y2  Ryd( 4d)     0.00106       3.27961
   166    C    4  dx2y2  Ryd( 3d)     0.00009       3.10131
   167    C    4  dx2y2  Ryd( 5d)     0.00005       6.07259
   168    C    4  dz2    Ryd( 3d)     0.00081       2.02115
   169    C    4  dz2    Ryd( 4d)     0.00013       4.12878
   170    C    4  dz2    Ryd( 5d)     0.00003       4.29939
   171    C    4  f(0)   Ryd( 4f)     0.00066       1.67172
   172    C    4  f(0)   Ryd( 5f)     0.00010       3.45824
   173    C    4  f(C1)  Ryd( 4f)     0.00091       1.97020
   174    C    4  f(C1)  Ryd( 5f)     0.00006       3.77082
   175    C    4  f(S1)  Ryd( 4f)     0.00090       1.97498
   176    C    4  f(S1)  Ryd( 5f)     0.00011       3.73819
   177    C    4  f(C2)  Ryd( 4f)     0.00018       1.41611
   178    C    4  f(C2)  Ryd( 5f)     0.00002       3.29941
   179    C    4  f(S2)  Ryd( 4f)     0.00060       1.55567
   180    C    4  f(S2)  Ryd( 5f)     0.00004       3.45891
   181    C    4  f(C3)  Ryd( 4f)     0.00178       2.48407
   182    C    4  f(C3)  Ryd( 5f)     0.00021       4.29758
   183    C    4  f(S3)  Ryd( 4f)     0.00090       2.39814
   184    C    4  f(S3)  Ryd( 5f)     0.00007       4.71816
 
   185    C    5  S      Cor( 1S)     1.99907     -10.41826
   186    C    5  S      Val( 2S)     0.93311      -0.19438
   187    C    5  S      Ryd( 3S)     0.00104       1.83432
   188    C    5  S      Ryd( 5S)     0.00018       2.43588
   189    C    5  S      Ryd( 4S)     0.00001       1.97428
   190    C    5  px     Val( 2p)     1.00951      -0.07389
   191    C    5  px     Ryd( 5p)     0.00259       1.97637
   192    C    5  px     Ryd( 3p)     0.00016       1.72827
   193    C    5  px     Ryd( 4p)     0.00002       1.85590
   194    C    5  py     Val( 2p)     1.18258      -0.11191
   195    C    5  py     Ryd( 4p)     0.00446       1.93042
   196    C    5  py     Ryd( 5p)     0.00009       1.93260
   197    C    5  py     Ryd( 3p)     0.00004       1.63584
   198    C    5  pz     Val( 2p)     0.91752      -0.14952
   199    C    5  pz     Ryd( 3p)     0.00095       1.01414
   200    C    5  pz     Ryd( 5p)     0.00007       1.33026
   201    C    5  pz     Ryd( 4p)     0.00005       1.06565
   202    C    5  dxy    Ryd( 4d)     0.00168       3.63859
   203    C    5  dxy    Ryd( 3d)     0.00026       3.38866
   204    C    5  dxy    Ryd( 5d)     0.00007       4.40756
   205    C    5  dxz    Ryd( 3d)     0.00033       1.36436
   206    C    5  dxz    Ryd( 5d)     0.00018       2.77950
   207    C    5  dxz    Ryd( 4d)     0.00001       2.72738
   208    C    5  dyz    Ryd( 3d)     0.00025       1.37162
   209    C    5  dyz    Ryd( 5d)     0.00014       2.70435
   210    C    5  dyz    Ryd( 4d)     0.00003       2.60641
   211    C    5  dx2y2  Ryd( 3d)     0.00184       2.59898
   212    C    5  dx2y2  Ryd( 4d)     0.00008       3.64512
   213    C    5  dx2y2  Ryd( 5d)     0.00005       5.58866
   214    C    5  dz2    Ryd( 3d)     0.00096       1.71155
   215    C    5  dz2    Ryd( 4d)     0.00013       3.84318
   216    C    5  dz2    Ryd( 5d)     0.00005       4.36884
   217    C    5  f(0)   Ryd( 4f)     0.00012       1.42058
   218    C    5  f(0)   Ryd( 5f)     0.00009       3.48199
   219    C    5  f(C1)  Ryd( 4f)     0.00030       2.08288
   220    C    5  f(C1)  Ryd( 5f)     0.00023       3.74121
   221    C    5  f(S1)  Ryd( 4f)     0.00047       1.85814
   222    C    5  f(S1)  Ryd( 5f)     0.00013       3.62034
   223    C    5  f(C2)  Ryd( 4f)     0.00013       1.41652
   224    C    5  f(C2)  Ryd( 5f)     0.00003       3.56573
   225    C    5  f(S2)  Ryd( 4f)     0.00043       1.40782
   226    C    5  f(S2)  Ryd( 5f)     0.00002       3.55860
   227    C    5  f(C3)  Ryd( 4f)     0.00116       2.11326
   228    C    5  f(C3)  Ryd( 5f)     0.00018       4.69469
   229    C    5  f(S3)  Ryd( 4f)     0.00049       3.70081
   230    C    5  f(S3)  Ryd( 5f)     0.00014       4.23923
 
   231    C    6  S      Cor( 1S)     1.99884     -10.39768
   232    C    6  S      Val( 2S)     0.88950      -0.14484
   233    C    6  S      Ryd( 3S)     0.00109       2.09516
   234    C    6  S      Ryd( 4S)     0.00008       2.45943
   235    C    6  S      Ryd( 5S)     0.00003       3.34012
   236    C    6  px     Val( 2p)     1.10499      -0.13065
   237    C    6  px     Ryd( 5p)     0.00560       2.37650
   238    C    6  px     Ryd( 4p)     0.00007       1.96280
   239    C    6  px     Ryd( 3p)     0.00005       1.29551
   240    C    6  py     Val( 2p)     1.13727      -0.13197
   241    C    6  py     Ryd( 5p)     0.00493       2.19010
   242    C    6  py     Ryd( 4p)     0.00007       1.86640
   243    C    6  py     Ryd( 3p)     0.00003       1.34705
   244    C    6  pz     Val( 2p)     1.06419      -0.16027
   245    C    6  pz     Ryd( 4p)     0.00106       0.97028
   246    C    6  pz     Ryd( 5p)     0.00010       1.59870
   247    C    6  pz     Ryd( 3p)     0.00003       0.87593
   248    C    6  dxy    Ryd( 3d)     0.00153       3.13313
   249    C    6  dxy    Ryd( 4d)     0.00023       3.59013
   250    C    6  dxy    Ryd( 5d)     0.00003       5.48668
   251    C    6  dxz    Ryd( 3d)     0.00024       1.59628
   252    C    6  dxz    Ryd( 5d)     0.00010       2.85002
   253    C    6  dxz    Ryd( 4d)     0.00004       2.29454
   254    C    6  dyz    Ryd( 3d)     0.00027       1.55061
   255    C    6  dyz    Ryd( 5d)     0.00007       2.73782
   256    C    6  dyz    Ryd( 4d)     0.00002       2.45845
   257    C    6  dx2y2  Ryd( 3d)     0.00120       3.29410
   258    C    6  dx2y2  Ryd( 4d)     0.00028       3.75661
   259    C    6  dx2y2  Ryd( 5d)     0.00007       5.06908
   260    C    6  dz2    Ryd( 3d)     0.00083       1.88023
   261    C    6  dz2    Ryd( 4d)     0.00018       3.77395
   262    C    6  dz2    Ryd( 5d)     0.00005       4.13052
   263    C    6  f(0)   Ryd( 4f)     0.00044       1.59027
   264    C    6  f(0)   Ryd( 5f)     0.00022       3.42102
   265    C    6  f(C1)  Ryd( 4f)     0.00049       2.02842
   266    C    6  f(C1)  Ryd( 5f)     0.00039       3.63489
   267    C    6  f(S1)  Ryd( 4f)     0.00078       2.01176
   268    C    6  f(S1)  Ryd( 5f)     0.00031       3.62388
   269    C    6  f(C2)  Ryd( 4f)     0.00050       1.50368
   270    C    6  f(C2)  Ryd( 5f)     0.00003       3.41844
   271    C    6  f(S2)  Ryd( 4f)     0.00083       1.53938
   272    C    6  f(S2)  Ryd( 5f)     0.00005       3.38623
   273    C    6  f(C3)  Ryd( 4f)     0.00174       2.70271
   274    C    6  f(C3)  Ryd( 5f)     0.00027       4.25382
   275    C    6  f(S3)  Ryd( 4f)     0.00129       2.97834
   276    C    6  f(S3)  Ryd( 5f)     0.00011       4.61987
 
   277    C    7  S      Cor( 1S)     1.99908     -10.55133
   278    C    7  S      Val( 2S)     0.77858      -0.11598
   279    C    7  S      Ryd( 3S)     0.00367       2.00606
   280    C    7  S      Ryd( 4S)     0.00011       2.19162
   281    C    7  S      Ryd( 5S)     0.00007       2.40871
   282    C    7  px     Val( 2p)     0.89929      -0.05221
   283    C    7  px     Ryd( 5p)     0.00978       1.58443
   284    C    7  px     Ryd( 3p)     0.00023       1.25822
   285    C    7  px     Ryd( 4p)     0.00002       1.30420
   286    C    7  py     Val( 2p)     0.74510      -0.04955
   287    C    7  py     Ryd( 5p)     0.00884       1.62716
   288    C    7  py     Ryd( 3p)     0.00009       1.33507
   289    C    7  py     Ryd( 4p)     0.00004       1.58107
   290    C    7  pz     Val( 2p)     0.75713      -0.14010
   291    C    7  pz     Ryd( 5p)     0.00061       1.12982
   292    C    7  pz     Ryd( 3p)     0.00010       0.78669
   293    C    7  pz     Ryd( 4p)     0.00002       0.91615
   294    C    7  dxy    Ryd( 4d)     0.00119       3.13194
   295    C    7  dxy    Ryd( 3d)     0.00018       2.97514
   296    C    7  dxy    Ryd( 5d)     0.00007       3.54390
   297    C    7  dxz    Ryd( 5d)     0.00134       2.30327
   298    C    7  dxz    Ryd( 4d)     0.00006       2.27967
   299    C    7  dxz    Ryd( 3d)     0.00005       2.27849
   300    C    7  dyz    Ryd( 3d)     0.00183       2.23531
   301    C    7  dyz    Ryd( 4d)     0.00001       2.27792
   302    C    7  dyz    Ryd( 5d)     0.00004       2.32287
   303    C    7  dx2y2  Ryd( 4d)     0.00176       3.12056
   304    C    7  dx2y2  Ryd( 3d)     0.00029       2.92234
   305    C    7  dx2y2  Ryd( 5d)     0.00006       3.37392
   306    C    7  dz2    Ryd( 3d)     0.00042       3.03531
   307    C    7  dz2    Ryd( 4d)     0.00049       3.17591
   308    C    7  dz2    Ryd( 5d)     0.00010       3.58808
   309    C    7  f(0)   Ryd( 5f)     0.00010       3.56642
   310    C    7  f(0)   Ryd( 4f)     0.00002       2.38990
   311    C    7  f(C1)  Ryd( 5f)     0.00014       3.76453
   312    C    7  f(C1)  Ryd( 4f)     0.00003       3.39478
   313    C    7  f(S1)  Ryd( 5f)     0.00007       3.69613
   314    C    7  f(S1)  Ryd( 4f)     0.00003       3.21181
   315    C    7  f(C2)  Ryd( 5f)     0.00002       3.57374
   316    C    7  f(C2)  Ryd( 4f)     0.00003       2.75145
   317    C    7  f(S2)  Ryd( 5f)     0.00001       3.55159
   318    C    7  f(S2)  Ryd( 4f)     0.00004       2.61525
   319    C    7  f(C3)  Ryd( 5f)     0.00005       4.61016
   320    C    7  f(C3)  Ryd( 4f)     0.00003       4.25335
   321    C    7  f(S3)  Ryd( 4f)     0.00007       4.65058
   322    C    7  f(S3)  Ryd( 5f)     0.00003       8.10836
 
   323    O    8  S      Cor( 1S)     1.99979     -19.33913
   324    O    8  S      Val( 2S)     1.70671      -1.01387
   325    O    8  S      Ryd( 4S)     0.00050       2.88692
   326    O    8  S      Ryd( 3S)     0.00018       1.81900
   327    O    8  S      Ryd( 5S)     0.00001       8.46759
   328    O    8  px     Val( 2p)     1.62500      -0.34589
   329    O    8  px     Ryd( 4p)     0.00061       1.57601
   330    O    8  px     Ryd( 3p)     0.00014       1.04253
   331    O    8  px     Ryd( 5p)     0.00005       4.86420
   332    O    8  py     Val( 2p)     1.79130      -0.35544
   333    O    8  py     Ryd( 4p)     0.00168       1.29201
   334    O    8  py     Ryd( 3p)     0.00006       0.95400
   335    O    8  py     Ryd( 5p)     0.00002       4.56039
   336    O    8  pz     Val( 2p)     1.44826      -0.30124
   337    O    8  pz     Ryd( 4p)     0.00053       1.05928
   338    O    8  pz     Ryd( 3p)     0.00002       0.71967
   339    O    8  pz     Ryd( 5p)     0.00001       3.94029
   340    O    8  dxy    Ryd( 3d)     0.00754       1.99431
   341    O    8  dxy    Ryd( 4d)     0.00010       2.88821
   342    O    8  dxy    Ryd( 5d)     0.00002       6.72449
   343    O    8  dxz    Ryd( 3d)     0.00483       1.53906
   344    O    8  dxz    Ryd( 4d)     0.00001       1.57473
   345    O    8  dxz    Ryd( 5d)     0.00002       6.54456
   346    O    8  dyz    Ryd( 3d)     0.00187       1.47001
   347    O    8  dyz    Ryd( 4d)     0.00002       1.52604
   348    O    8  dyz    Ryd( 5d)     0.00001       6.53259
   349    O    8  dx2y2  Ryd( 3d)     0.00580       1.90974
   350    O    8  dx2y2  Ryd( 4d)     0.00008       2.19919
   351    O    8  dx2y2  Ryd( 5d)     0.00006       6.66374
   352    O    8  dz2    Ryd( 3d)     0.00278       1.65215
   353    O    8  dz2    Ryd( 4d)     0.00008       2.40552
   354    O    8  dz2    Ryd( 5d)     0.00000       6.63133
   355    O    8  f(0)   Ryd( 4f)     0.00012       3.19118
   356    O    8  f(0)   Ryd( 5f)     0.00000       5.42601
   357    O    8  f(C1)  Ryd( 4f)     0.00013       3.71267
   358    O    8  f(C1)  Ryd( 5f)     0.00001       5.69674
   359    O    8  f(S1)  Ryd( 4f)     0.00005       3.33408
   360    O    8  f(S1)  Ryd( 5f)     0.00001       5.56841
   361    O    8  f(C2)  Ryd( 4f)     0.00006       3.13823
   362    O    8  f(C2)  Ryd( 5f)     0.00000       5.63586
   363    O    8  f(S2)  Ryd( 4f)     0.00024       3.25051
   364    O    8  f(S2)  Ryd( 5f)     0.00002       5.54920
   365    O    8  f(C3)  Ryd( 4f)     0.00036       3.66562
   366    O    8  f(C3)  Ryd( 5f)     0.00003       5.88246
   367    O    8  f(S3)  Ryd( 4f)     0.00039       4.12112
   368    O    8  f(S3)  Ryd( 5f)     0.00001       6.03157
 
   369    O    9  S      Cor( 1S)     1.99978     -19.46928
   370    O    9  S      Val( 2S)     1.67669      -1.04497
   371    O    9  S      Ryd( 3S)     0.00039       1.74653
   372    O    9  S      Ryd( 4S)     0.00006       2.44162
   373    O    9  S      Ryd( 5S)     0.00001       9.45160
   374    O    9  px     Val( 2p)     1.61694      -0.39337
   375    O    9  px     Ryd( 3p)     0.00046       1.19427
   376    O    9  px     Ryd( 4p)     0.00009       1.42619
   377    O    9  px     Ryd( 5p)     0.00005       4.56254
   378    O    9  py     Val( 2p)     1.54302      -0.38920
   379    O    9  py     Ryd( 4p)     0.00096       1.10069
   380    O    9  py     Ryd( 3p)     0.00008       1.05200
   381    O    9  py     Ryd( 5p)     0.00004       4.62327
   382    O    9  pz     Val( 2p)     1.84371      -0.42280
   383    O    9  pz     Ryd( 4p)     0.00105       0.88362
   384    O    9  pz     Ryd( 3p)     0.00002       0.81601
   385    O    9  pz     Ryd( 5p)     0.00000       3.81269
   386    O    9  dxy    Ryd( 3d)     0.00271       1.63880
   387    O    9  dxy    Ryd( 4d)     0.00010       2.33833
   388    O    9  dxy    Ryd( 5d)     0.00005       6.55985
   389    O    9  dxz    Ryd( 3d)     0.00182       1.15394
   390    O    9  dxz    Ryd( 4d)     0.00004       1.96484
   391    O    9  dxz    Ryd( 5d)     0.00001       6.32152
   392    O    9  dyz    Ryd( 3d)     0.00297       1.38227
   393    O    9  dyz    Ryd( 4d)     0.00005       1.77212
   394    O    9  dyz    Ryd( 5d)     0.00003       6.39459
   395    O    9  dx2y2  Ryd( 3d)     0.00704       2.11343
   396    O    9  dx2y2  Ryd( 4d)     0.00009       2.34962
   397    O    9  dx2y2  Ryd( 5d)     0.00005       6.91344
   398    O    9  dz2    Ryd( 3d)     0.00301       1.53269
   399    O    9  dz2    Ryd( 4d)     0.00012       2.42947
   400    O    9  dz2    Ryd( 5d)     0.00001       6.59760
   401    O    9  f(0)   Ryd( 4f)     0.00050       2.80431
   402    O    9  f(0)   Ryd( 5f)     0.00001       5.88365
   403    O    9  f(C1)  Ryd( 4f)     0.00016       3.24937
   404    O    9  f(C1)  Ryd( 5f)     0.00001       6.18394
   405    O    9  f(S1)  Ryd( 4f)     0.00020       3.54904
   406    O    9  f(S1)  Ryd( 5f)     0.00001       6.10545
   407    O    9  f(C2)  Ryd( 4f)     0.00001       2.95844
   408    O    9  f(C2)  Ryd( 5f)     0.00001       5.96344
   409    O    9  f(S2)  Ryd( 4f)     0.00009       2.78285
   410    O    9  f(S2)  Ryd( 5f)     0.00000       6.01032
   411    O    9  f(C3)  Ryd( 4f)     0.00011       3.98750
   412    O    9  f(C3)  Ryd( 5f)     0.00003       6.45596
   413    O    9  f(S3)  Ryd( 4f)     0.00007       4.27939
   414    O    9  f(S3)  Ryd( 5f)     0.00004       6.46123
 
   415    C   10  S      Cor( 1S)     1.99926     -10.42021
   416    C   10  S      Val( 2S)     0.83101      -0.10778
   417    C   10  S      Ryd( 4S)     0.00640       1.94318
   418    C   10  S      Ryd( 5S)     0.00010       2.84236
   419    C   10  S      Ryd( 3S)     0.00002       1.58301
   420    C   10  px     Val( 2p)     0.97567      -0.00575
   421    C   10  px     Ryd( 4p)     0.00993       1.76071
   422    C   10  px     Ryd( 3p)     0.00011       1.72359
   423    C   10  px     Ryd( 5p)     0.00004       1.88466
   424    C   10  py     Val( 2p)     0.95025      -0.05225
   425    C   10  py     Ryd( 4p)     0.00731       1.49137
   426    C   10  py     Ryd( 3p)     0.00011       1.28422
   427    C   10  py     Ryd( 5p)     0.00004       1.63975
   428    C   10  pz     Val( 2p)     0.93949      -0.10813
   429    C   10  pz     Ryd( 4p)     0.00053       1.05639
   430    C   10  pz     Ryd( 3p)     0.00005       0.67620
   431    C   10  pz     Ryd( 5p)     0.00002       1.15513
   432    C   10  dxy    Ryd( 5d)     0.00038       5.25257
   433    C   10  dxy    Ryd( 3d)     0.00026       1.49345
   434    C   10  dxy    Ryd( 4d)     0.00005       4.24599
   435    C   10  dxz    Ryd( 5d)     0.00032       3.42339
   436    C   10  dxz    Ryd( 3d)     0.00005       0.83153
   437    C   10  dxz    Ryd( 4d)     0.00001       2.39589
   438    C   10  dyz    Ryd( 5d)     0.00017       3.23431
   439    C   10  dyz    Ryd( 3d)     0.00002       0.77045
   440    C   10  dyz    Ryd( 4d)     0.00000       2.27785
   441    C   10  dx2y2  Ryd( 5d)     0.00041       3.95566
   442    C   10  dx2y2  Ryd( 3d)     0.00016       1.20389
   443    C   10  dx2y2  Ryd( 4d)     0.00002       2.95523
   444    C   10  dz2    Ryd( 4d)     0.00016       3.92618
   445    C   10  dz2    Ryd( 3d)     0.00016       1.04815
   446    C   10  dz2    Ryd( 5d)     0.00003       4.14636
   447    C   10  f(0)   Ryd( 4f)     0.00019       2.24499
   448    C   10  f(0)   Ryd( 5f)     0.00005       2.58394
   449    C   10  f(C1)  Ryd( 4f)     0.00165       2.60675
   450    C   10  f(C1)  Ryd( 5f)     0.00002       3.10539
   451    C   10  f(S1)  Ryd( 4f)     0.00089       2.33524
   452    C   10  f(S1)  Ryd( 5f)     0.00003       2.77622
   453    C   10  f(C2)  Ryd( 4f)     0.00005       2.25700
   454    C   10  f(C2)  Ryd( 5f)     0.00002       2.34331
   455    C   10  f(S2)  Ryd( 4f)     0.00023       2.38808
   456    C   10  f(S2)  Ryd( 5f)     0.00012       2.60427
   457    C   10  f(C3)  Ryd( 5f)     0.00085       3.08205
   458    C   10  f(C3)  Ryd( 4f)     0.00021       2.98538
   459    C   10  f(S3)  Ryd( 4f)     0.00349       3.42290
   460    C   10  f(S3)  Ryd( 5f)     0.00006       3.84364
 
   461    N   11  S      Cor( 1S)     1.99962     -14.48508
   462    N   11  S      Val( 2S)     1.58851      -0.66310
   463    N   11  S      Ryd( 4S)     0.00259       2.65881
   464    N   11  S      Ryd( 3S)     0.00022       1.80961
   465    N   11  S      Ryd( 5S)     0.00001       9.31851
   466    N   11  px     Val( 2p)     1.34840      -0.19616
   467    N   11  px     Ryd( 4p)     0.00111       1.13090
   468    N   11  px     Ryd( 5p)     0.00018       5.82904
   469    N   11  px     Ryd( 3p)     0.00005       0.59144
   470    N   11  py     Val( 2p)     1.21959      -0.17865
   471    N   11  py     Ryd( 4p)     0.00069       1.00855
   472    N   11  py     Ryd( 5p)     0.00010       4.98809
   473    N   11  py     Ryd( 3p)     0.00005       0.59175
   474    N   11  pz     Val( 2p)     1.08884      -0.16114
   475    N   11  pz     Ryd( 4p)     0.00076       0.84520
   476    N   11  pz     Ryd( 5p)     0.00002       3.73008
   477    N   11  pz     Ryd( 3p)     0.00006       0.52283
   478    N   11  dxy    Ryd( 3d)     0.00829       2.17194
   479    N   11  dxy    Ryd( 4d)     0.00012       2.41963
   480    N   11  dxy    Ryd( 5d)     0.00003       5.40482
   481    N   11  dxz    Ryd( 4d)     0.00333       1.48179
   482    N   11  dxz    Ryd( 3d)     0.00002       1.12442
   483    N   11  dxz    Ryd( 5d)     0.00002       4.83664
   484    N   11  dyz    Ryd( 4d)     0.00179       1.42054
   485    N   11  dyz    Ryd( 3d)     0.00002       1.10660
   486    N   11  dyz    Ryd( 5d)     0.00002       4.81661
   487    N   11  dx2y2  Ryd( 4d)     0.00553       1.86004
   488    N   11  dx2y2  Ryd( 3d)     0.00007       1.42855
   489    N   11  dx2y2  Ryd( 5d)     0.00001       4.93053
   490    N   11  dz2    Ryd( 3d)     0.00293       1.64492
   491    N   11  dz2    Ryd( 4d)     0.00006       1.79719
   492    N   11  dz2    Ryd( 5d)     0.00001       5.03814
   493    N   11  f(0)   Ryd( 5f)     0.00011       3.73363
   494    N   11  f(0)   Ryd( 4f)     0.00001       2.85834
   495    N   11  f(C1)  Ryd( 5f)     0.00014       3.99984
   496    N   11  f(C1)  Ryd( 4f)     0.00001       3.28136
   497    N   11  f(S1)  Ryd( 5f)     0.00008       3.79362
   498    N   11  f(S1)  Ryd( 4f)     0.00001       3.03264
   499    N   11  f(C2)  Ryd( 5f)     0.00002       3.75861
   500    N   11  f(C2)  Ryd( 4f)     0.00000       3.27973
   501    N   11  f(S2)  Ryd( 5f)     0.00016       3.87127
   502    N   11  f(S2)  Ryd( 4f)     0.00001       2.98631
   503    N   11  f(C3)  Ryd( 5f)     0.00025       4.32580
   504    N   11  f(C3)  Ryd( 4f)     0.00002       3.17356
   505    N   11  f(S3)  Ryd( 5f)     0.00027       4.38150
   506    N   11  f(S3)  Ryd( 4f)     0.00001       3.54279
 
   507    H   12  S      Val( 1S)     0.75436       0.03422
   508    H   12  S      Ryd( 4S)     0.00043       1.97233
   509    H   12  S      Ryd( 2S)     0.00013       0.68925
   510    H   12  S      Ryd( 3S)     0.00005       1.77374
   511    H   12  px     Ryd( 2p)     0.00066       0.91920
   512    H   12  px     Ryd( 4p)     0.00018       4.21008
   513    H   12  px     Ryd( 3p)     0.00005       4.02182
   514    H   12  py     Ryd( 2p)     0.00056       0.87836
   515    H   12  py     Ryd( 4p)     0.00010       4.17785
   516    H   12  py     Ryd( 3p)     0.00009       3.54261
   517    H   12  pz     Ryd( 2p)     0.00012       0.60218
   518    H   12  pz     Ryd( 4p)     0.00002       3.96504
   519    H   12  pz     Ryd( 3p)     0.00002       2.08070
   520    H   12  dxy    Ryd( 3d)     0.00009       2.40980
   521    H   12  dxy    Ryd( 4d)     0.00003       4.43145
   522    H   12  dxz    Ryd( 3d)     0.00001       1.70906
   523    H   12  dxz    Ryd( 4d)     0.00001       3.78466
   524    H   12  dyz    Ryd( 3d)     0.00002       1.68707
   525    H   12  dyz    Ryd( 4d)     0.00001       3.70581
   526    H   12  dx2y2  Ryd( 3d)     0.00003       2.06959
   527    H   12  dx2y2  Ryd( 4d)     0.00002       4.44084
   528    H   12  dz2    Ryd( 3d)     0.00003       2.26914
   529    H   12  dz2    Ryd( 4d)     0.00002       4.14722
 
   530    H   13  S      Val( 1S)     0.77486       0.01749
   531    H   13  S      Ryd( 4S)     0.00032       1.97511
   532    H   13  S      Ryd( 2S)     0.00016       0.73421
   533    H   13  S      Ryd( 3S)     0.00002       1.47458
   534    H   13  px     Ryd( 2p)     0.00015       1.22053
   535    H   13  px     Ryd( 4p)     0.00006       3.40361
   536    H   13  px     Ryd( 3p)     0.00007       2.45701
   537    H   13  py     Ryd( 2p)     0.00080       1.23097
   538    H   13  py     Ryd( 4p)     0.00009       5.15103
   539    H   13  py     Ryd( 3p)     0.00004       3.06857
   540    H   13  pz     Ryd( 2p)     0.00013       1.02859
   541    H   13  pz     Ryd( 4p)     0.00009       3.00369
   542    H   13  pz     Ryd( 3p)     0.00000       2.12550
   543    H   13  dxy    Ryd( 3d)     0.00002       2.00514
   544    H   13  dxy    Ryd( 4d)     0.00002       4.42747
   545    H   13  dxz    Ryd( 3d)     0.00001       1.56197
   546    H   13  dxz    Ryd( 4d)     0.00000       3.42544
   547    H   13  dyz    Ryd( 3d)     0.00001       1.77798
   548    H   13  dyz    Ryd( 4d)     0.00001       3.92825
   549    H   13  dx2y2  Ryd( 3d)     0.00014       2.14639
   550    H   13  dx2y2  Ryd( 4d)     0.00002       4.32360
   551    H   13  dz2    Ryd( 3d)     0.00001       1.91947
   552    H   13  dz2    Ryd( 4d)     0.00002       3.75524
 
   553    H   14  S      Val( 1S)     0.77082       0.01470
   554    H   14  S      Ryd( 4S)     0.00032       1.97170
   555    H   14  S      Ryd( 2S)     0.00012       0.76659
   556    H   14  S      Ryd( 3S)     0.00003       1.79786
   557    H   14  px     Ryd( 2p)     0.00043       0.98480
   558    H   14  px     Ryd( 4p)     0.00013       4.57425
   559    H   14  px     Ryd( 3p)     0.00008       3.58380
   560    H   14  py     Ryd( 2p)     0.00040       1.09176
   561    H   14  py     Ryd( 4p)     0.00006       3.82464
   562    H   14  py     Ryd( 3p)     0.00006       2.58063
   563    H   14  pz     Ryd( 2p)     0.00007       0.75715
   564    H   14  pz     Ryd( 4p)     0.00007       3.36077
   565    H   14  pz     Ryd( 3p)     0.00006       2.15952
   566    H   14  dxy    Ryd( 3d)     0.00005       2.15876
   567    H   14  dxy    Ryd( 4d)     0.00003       4.31637
   568    H   14  dxz    Ryd( 3d)     0.00001       1.45248
   569    H   14  dxz    Ryd( 4d)     0.00001       4.03129
   570    H   14  dyz    Ryd( 3d)     0.00001       1.26083
   571    H   14  dyz    Ryd( 4d)     0.00000       3.78932
   572    H   14  dx2y2  Ryd( 3d)     0.00003       1.93003
   573    H   14  dx2y2  Ryd( 4d)     0.00002       4.33354
   574    H   14  dz2    Ryd( 3d)     0.00002       1.71700
   575    H   14  dz2    Ryd( 4d)     0.00002       3.94060
 
   576    H   15  S      Val( 1S)     0.75462       0.02553
   577    H   15  S      Ryd( 4S)     0.00044       1.91663
   578    H   15  S      Ryd( 2S)     0.00012       0.76804
   579    H   15  S      Ryd( 3S)     0.00003       1.80856
   580    H   15  px     Ryd( 2p)     0.00054       1.05549
   581    H   15  px     Ryd( 4p)     0.00005       4.02201
   582    H   15  px     Ryd( 3p)     0.00005       3.49348
   583    H   15  py     Ryd( 2p)     0.00050       0.73603
   584    H   15  py     Ryd( 4p)     0.00027       5.04608
   585    H   15  py     Ryd( 3p)     0.00004       4.07546
   586    H   15  pz     Ryd( 2p)     0.00021       0.50438
   587    H   15  pz     Ryd( 4p)     0.00002       3.78523
   588    H   15  pz     Ryd( 3p)     0.00004       2.53071
   589    H   15  dxy    Ryd( 3d)     0.00004       1.82102
   590    H   15  dxy    Ryd( 4d)     0.00002       4.56280
   591    H   15  dxz    Ryd( 3d)     0.00004       1.44359
   592    H   15  dxz    Ryd( 4d)     0.00000       3.84800
   593    H   15  dyz    Ryd( 3d)     0.00002       1.40411
   594    H   15  dyz    Ryd( 4d)     0.00002       4.17716
   595    H   15  dx2y2  Ryd( 3d)     0.00003       2.23086
   596    H   15  dx2y2  Ryd( 4d)     0.00002       4.56539
   597    H   15  dz2    Ryd( 3d)     0.00003       2.46686
   598    H   15  dz2    Ryd( 4d)     0.00002       4.21051
 
   599    H   16  S      Val( 1S)     0.48793       0.12626
   600    H   16  S      Ryd( 4S)     0.00115       1.85041
   601    H   16  S      Ryd( 2S)     0.00012       0.50491
   602    H   16  S      Ryd( 3S)     0.00012       1.73989
   603    H   16  px     Ryd( 4p)     0.00014       3.36179
   604    H   16  px     Ryd( 3p)     0.00034       3.05980
   605    H   16  px     Ryd( 2p)     0.00003       3.00947
   606    H   16  py     Ryd( 2p)     0.00028       2.15571
   607    H   16  py     Ryd( 3p)     0.00007       2.65732
   608    H   16  py     Ryd( 4p)     0.00002       3.18950
   609    H   16  pz     Ryd( 2p)     0.00050       1.90858
   610    H   16  pz     Ryd( 3p)     0.00003       2.36695
   611    H   16  pz     Ryd( 4p)     0.00001       2.80034
   612    H   16  dxy    Ryd( 3d)     0.00009       1.30742
   613    H   16  dxy    Ryd( 4d)     0.00001       4.45784
   614    H   16  dxz    Ryd( 3d)     0.00004       1.11577
   615    H   16  dxz    Ryd( 4d)     0.00000       4.23670
   616    H   16  dyz    Ryd( 3d)     0.00008       1.14836
   617    H   16  dyz    Ryd( 4d)     0.00000       3.82463
   618    H   16  dx2y2  Ryd( 3d)     0.00001       1.83496
   619    H   16  dx2y2  Ryd( 4d)     0.00000       4.59001
   620    H   16  dz2    Ryd( 3d)     0.00012       1.62600
   621    H   16  dz2    Ryd( 4d)     0.00001       4.06477

 WARNING:  1 low occupancy (<1.9990e) core orbital  found on  C    4
           1 low occupancy (<1.9990e) core orbital  found on  C    6

 WARNING:  Population inversion found on atom  C    1
           Population inversion found on atom  C    2
           Population inversion found on atom  C    3
           Population inversion found on atom  C    4
           Population inversion found on atom  C    5
           Population inversion found on atom  C    6
           Population inversion found on atom  C    7
           Population inversion found on atom  O    8
           Population inversion found on atom  O    9
           Population inversion found on atom  C   10
           Population inversion found on atom  N   11
           Population inversion found on atom  H   12
           Population inversion found on atom  H   13
           Population inversion found on atom  H   14
           Population inversion found on atom  H   15
           Population inversion found on atom  H   16


 Summary of Natural Population Analysis:                  
                                                          
                                       Natural Population 
                Natural  -----------------------------------------------
    Atom  No    Charge         Core      Valence    Rydberg      Total
 -----------------------------------------------------------------------
      C    1   -0.09948      1.99909     4.07908    0.02132     6.09948
      C    2   -0.20861      1.99913     4.19120    0.01828     6.20861
      C    3   -0.09532      1.99906     4.07950    0.01675     6.09532
      C    4   -0.24130      1.99874     4.21923    0.02333     6.24130
      C    5   -0.06141      1.99907     4.04271    0.01963     6.06141
      C    6   -0.22056      1.99884     4.19595    0.02576     6.22056
      C    7    0.78864      1.99908     3.18010    0.03217     5.21136
      O    8   -0.59951      1.99979     6.57127    0.02845     8.59951
      O    9   -0.70270      1.99978     6.68035    0.02257     8.70270
      C   10    0.26960      1.99926     3.69642    0.03473     5.73040
      N   11   -0.27415      1.99962     5.24534    0.02918     7.27415
      H   12    0.24296      0.00000     0.75436    0.00268     0.75704
      H   13    0.22296      0.00000     0.77486    0.00218     0.77704
      H   14    0.22716      0.00000     0.77082    0.00202     0.77284
      H   15    0.24282      0.00000     0.75462    0.00256     0.75718
      H   16    0.50890      0.00000     0.48793    0.00318     0.49110
 =======================================================================
   * Total *    0.00000     21.99146    53.72375    0.28479    76.00000

                                 Natural Population      
 --------------------------------------------------------
   Core                      21.99146 ( 99.9612% of  22)
   Valence                   53.72375 ( 99.4884% of  54)
   Natural Minimal Basis     75.71521 ( 99.6253% of  76)
   Natural Rydberg Basis      0.28479 (  0.3747% of  76)
 --------------------------------------------------------

    Atom  No          Natural Electron Configuration
 ----------------------------------------------------------------------------
      C    1      [core]2S( 0.95)2p( 3.13)4p( 0.01)
      C    2      [core]2S( 0.95)2p( 3.24)4p( 0.01)
[...]
     6         -3.73238908         -2.11451718          2.49983698
     6         -4.01153737         -2.26885111         -0.09893718
     6         -2.16371537         -1.24918671         -1.67544895
     6         -0.04018727         -0.07708137         -0.66009398
     6          0.21717155          0.06520381          1.94509459
     6          2.44708029          1.29594657          3.14083281
     8          2.76372014          1.47181483          5.37908766
     8          4.09878042          2.20837935          1.44219083
     6         -2.45516426         -1.41032187         -4.36912090
     7         -2.69296056         -1.54178007         -6.51996990
     1         -1.36356443         -0.80683577          5.54494724
     1         -5.16341110         -2.90418730          3.72357379
     1         -5.64723101         -3.17168964         -0.92405584
     1          1.38714752          0.71053840         -1.88738998
     1          5.47195254          2.96703397          2.37709756

 Electric dipole moment (dipole orientation):
 (Debye = 10**-18 statcoulomb cm , SI units = C m)
                  (au)            (Debye)         (10**-30 SI)
   Tot        0.108099D+01      0.274761D+01      0.916503D+01
   x          0.000000D+00      0.000000D+00      0.000000D+00
   y          0.000000D+00      0.000000D+00      0.000000D+00
   z          0.108099D+01      0.274761D+01      0.916503D+01

 Dipole polarizability, Alpha (dipole orientation).
 (esu units = cm**3 , SI units = C**2 m**2 J**-1)
 Alpha(0;0):
               (au)            (10**-24 esu)      (10**-40 SI)
   iso        0.104517D+03      0.154879D+02      0.172326D+02
   aniso      0.756165D+02      0.112052D+02      0.124675D+02
   xx         0.103604D+03      0.153525D+02      0.170819D+02
   yx         0.250940D+02      0.371854D+01      0.413744D+01
   yy         0.719967D+02      0.106688D+02      0.118706D+02
   zx         0.120031D+02      0.177868D+01      0.197905D+01
   zy         0.663471D+01      0.983163D+00      0.109392D+01
   zz         0.137952D+03      0.204424D+02      0.227452D+02

 ----------------------------------------------------------------------
 Unable to Open any file for archive entry.
 1\1\GINC-AE22\Freq\RM062X\Aug-CC-pVTZ\C8H5N1O2\DHUANG\06-Sep-2022\0\\#
 N Geom=AllCheck Guess=TCheck SCRF=Check GenChk RM062X/Aug-CC-pVTZ Freq
 \\3-CN_benzoic-acid\\0,1\C,-1.9963359865,-0.3405724224,-0.6050146477\C
 ,-1.6630982166,-1.1634715327,-1.6683669498\C,-0.3340054279,-1.45586008
 52,-1.9285983305\C,0.6643212654,-0.9192021586,-1.1170477902\C,0.336831
 256,-0.0918847571,-0.0472557928\C,-0.9976837778,0.1932563155,0.2028168
 675\C,-1.4091500543,1.0716177624,1.3324917933\O,-2.5465466183,1.350880
 4781,1.5931852588\O,-0.3657168963,1.5302868644,2.04378818\C,2.04174690
 81,-1.2230148924,-1.3877943357\N,3.1411136848,-1.4673974228,-1.6064224
 307\H,-3.0260720872,-0.0981413329,-0.3822164406\H,-2.4377147951,-1.578
 8710488,-2.2967243438\H,-0.0593073509,-2.0963208194,-2.7547163159\H,1.
 1129524536,0.3219366639,0.5791580162\H,-0.722634357,2.0863583881,2.749
 0172619\\Version=ES64L-G16RevC.01\State=1-A\HF=-513.065323\RMSD=1.671e
 -09\RMSF=5.038e-05\ZeroPoint=0.115205\Thermal=0.1240717\ETot=-512.9412
 514\HTot=-512.9403072\GTot=-512.9848485\Dipole=-1.0656452,0.1520513,0.
 0991194\DipoleDeriv=-0.0049284,0.0516192,0.0735421,-0.0637269,0.002587
 3,0.0698916,-0.0799808,0.081026,0.0455874,-0.0652443,0.1213572,0.16733
 39,0.1322223,-0.1189908,0.0199359,0.1818012,0.018888,-0.0815034,0.0798
 718,-0.0374317,-0.0363632,0.0373977,-0.0257914,0.0477534,0.0632779,0.0
 404765,0.0011226,0.0722783,-0.0167498,-0.017658,-0.0367146,0.0044063,-
 0.0302011,-0.0442615,-0.0282552,-0.0175052,-0.010918,-0.0401551,-0.050
 8522,-0.0082743,0.0015272,0.0516395,-0.0083827,0.0484657,0.0258694,-0.
 1607581,0.0296615,0.0281111,0.0616148,-0.195845,-0.1966934,0.0707428,-
 0.1998811,-0.3028425,1.6467262,-0.0579494,0.0498596,-0.1610542,0.97159
 68,0.8296277,-0.0873786,0.8395016,1.4457534,-1.1453751,0.2007982,0.191
 695,0.2837334,-0.603069,-0.2895852,0.3015849,-0.2974783,-0.731622,-0.7
 837084,-0.2520528,-0.3771472,-0.2311035,-0.6145503,-0.3682672,-0.34893
 56,-0.3701052,-0.8812966,0.3719619,-0.0848549,-0.0910615,-0.0668736,0.
 1287388,-0.0299153,-0.0671038,-0.0316538,0.0976625,-0.4360256,0.045098
 3,0.0492216,0.0301812,-0.3252308,0.0021447,0.0293604,0.0035913,-0.3170
 04,0.0465629,0.0054456,-0.0005129,0.0125546,0.1215815,-0.0054203,0.008
 9473,-0.0061128,0.1192888,0.0094937,-0.0232233,-0.0429538,-0.0230303,0
 .0913469,-0.0581636,-0.0427123,-0.0581761,0.0517406,0.0760722,0.020732
 6,0.0221712,0.016978,0.0869519,-0.0583707,0.017174,-0.05801,0.0564539,
 0.0642181,-0.0171711,-0.0294256,-0.0163296,0.1227354,-0.013623,-0.0282
 975,-0.0137066,0.110761,0.2397728,0.0548754,0.0640398,0.0324251,0.3520
 053,0.029247,0.0341643,0.0314301,0.3775343\Polar=132.9133284,-13.21498
 59,82.3321788,-10.3322652,30.9195368,98.3066758\Quadrupole=-10.9352527
 ,3.8515073,7.0837455,6.9573274,8.0213961,3.353357\PG=C01 [X(C8H5N1O2)]
 \NImag=0\\0.74207339,-0.04810430,0.34801969,-0.00623935,0.26320252,0.4
 9671450,-0.14660801,0.00916823,0.00429943,0.71710566,0.05627377,-0.165
 84862,-0.12860237,-0.00041553,0.34623057,0.06702273,-0.13317465,-0.235
 98186,0.05566719,0.27680185,0.51229878,0.01039463,0.05843274,0.0782370
 0,-0.32982619,0.02212952,0.00370091,0.68106417,0.02434894,0.00197100,-
 0.00294618,0.06917348,-0.09928770,-0.03949401,-0.04491174,0.36477884,0
 .03285276,0.00036515,0.00963601,0.06634364,-0.04406365,-0.11681030,-0.
 00758642,0.29029907,0.52929393,-0.00599590,-0.01192232,-0.01587171,-0.
 05357348,0.00238193,-0.00270753,-0.21610545,-0.07320651,-0.11207596,0.
 68426060,-0.01333139,-0.02982537,-0.03297528,-0.03271850,0.02970867,0.
 02712556,-0.03093884,-0.11953464,-0.07454391,-0.02981732,0.33422148,-0
 .01774918,-0.03283898,-0.05148413,-0.04944497,0.03053506,0.04280809,-0
 .05579318,-0.07864877,-0.17595240,0.01281515,0.25098510,0.47899342,-0.
 05301185,-0.03349469,-0.05042388,-0.03957662,0.02594323,0.03122798,0.0
 6425836,-0.00688058,-0.00373996,-0.13061031,0.00515513,0.00059243,0.72
 344964,0.00042778,0.03024115,0.03107341,0.02617761,-0.02126880,-0.0185
 6883,-0.04159009,-0.01062431,-0.02941464,0.04679319,-0.15973842,-0.120
 16297,-0.00004301,0.34869984,-0.00525216,0.02777864,0.04341422,0.03153
 838,-0.01859140,-0.02710620,-0.04995626,-0.02604395,-0.03109808,0.0560
 3779,-0.12421021,-0.22602685,0.05619137,0.27215333,0.51216014,-0.23791
 661,-0.02974058,-0.05619548,0.06282884,-0.03911976,-0.04667061,-0.0737
 6739,-0.00840824,-0.01772336,0.00416837,0.05595407,0.07412695,-0.32435
 686,0.02017672,0.00171110,0.72286139,-0.07289159,-0.11624048,-0.072528
 11,-0.00561996,-0.01142799,-0.02510187,-0.00667967,-0.00554265,0.00071
 226,0.02042206,0.00171842,-0.00652118,0.06208014,-0.09604424,-0.034898
 54,-0.02047123,0.33230715,-0.11365125,-0.06833842,-0.16913416,-0.00206
 590,-0.02835346,-0.03094580,-0.01542228,0.00054447,-0.00733730,0.02681
 399,-0.00306715,0.00662369,0.05750879,-0.03897158,-0.11162105,0.028698
 69,0.24506847,0.47585279,0.01969036,-0.00913789,-0.01046765,-0.0026446
 0,-0.00473824,-0.00735330,-0.00466269,-0.00054296,-0.00105143,-0.00657
 309,0.00241681,0.00172391,-0.00228546,0.01827550,0.02408706,-0.1025388
 3,0.01021370,0.01186146,0.97571037,-0.00383557,-0.01009484,-0.01665120
 ,-0.00228848,0.00597296,-0.00303389,-0.00119656,-0.00022025,0.00129478
 ,0.00067630,0.00808339,-0.00089822,0.01095662,-0.00345843,-0.00394115,
 0.01665332,-0.12782158,-0.05605863,-0.11662911,0.39050934,-0.00339550,
 -0.01716660,-0.02105376,-0.00409124,-0.00327447,0.00332991,-0.00192247
 ,0.00135970,0.00034330,-0.00059006,-0.00073157,0.00777900,0.01433062,-
 0.00323369,-0.00260886,0.02042363,-0.05664723,-0.15799299,-0.08133028,
 0.21977880,0.50133635,-0.00639685,-0.00366643,-0.00551546,0.00056908,0
 .00102966,0.00151269,-0.00003467,0.00000138,-0.00002127,0.00031628,0.0
 0082161,0.00130662,0.00328283,0.00168337,0.00232337,-0.02568242,0.0199
 0717,0.02187654,-0.68487155,0.15455878,0.14670580,0.81982707,0.0017910
 8,-0.00019698,-0.00030370,0.00042990,-0.00013921,0.00102724,0.00114876
 ,-0.00010026,-0.00028912,0.00099089,-0.00224035,-0.00041760,-0.0028944
 5,-0.00071121,-0.00446775,0.03126529,0.00586989,-0.01803135,0.14917516
 ,-0.13342613,-0.05665257,-0.16997928,0.10133990,0.00174430,-0.00083538
 ,-0.00078157,0.00071313,0.00108645,0.00063711,0.00150771,-0.00040091,-
 0.00018656,0.00152814,-0.00043294,-0.00228464,-0.00376900,-0.00401921,
 -0.00328477,0.03700624,-0.01915219,-0.00017955,0.13952391,-0.05611886,
 -0.14099769,-0.14961921,0.07337235,0.11681270,-0.00028177,0.00097277,0
 .00114793,0.00110691,0.00031727,0.00057646,0.00069828,-0.00000532,0.00
 005338,0.00110737,-0.00091661,-0.00103762,-0.00436585,0.00127387,0.001
 23287,0.00769318,-0.00226574,-0.00341437,-0.20738726,-0.03198882,-0.05
 630142,-0.10680562,-0.01674294,-0.03554377,0.42499413,0.00419390,-0.00
 076962,-0.00227307,-0.00041384,-0.00120698,-0.00100990,-0.00051941,-0.
 00028677,-0.00053426,-0.00041171,-0.00051238,0.00031713,-0.00059880,-0
 .00143186,-0.00246584,-0.01997871,-0.00612112,-0.02586884,-0.04856363,
 -0.11267990,-0.06723086,-0.00983411,0.03212109,0.00216318,-0.04367263,
 0.26730642,0.00543301,-0.00258422,-0.00166954,-0.00039596,-0.00093756,
 -0.00176755,-0.00063148,-0.00048430,-0.00062951,-0.00036553,0.00026875
 ,-0.00045818,-0.00125627,-0.00228292,-0.00278504,-0.02699284,-0.024165
 21,-0.02290677,-0.07833416,-0.06561749,-0.16059030,-0.02636213,0.00149
 189,0.02920078,-0.02061609,0.30019574,0.43592670,-0.00081387,-0.000413
 30,-0.00051261,0.00137531,-0.00404115,-0.00602312,-0.04478307,0.002821
 21,-0.00077603,-0.27831291,0.04296783,0.03606498,-0.02062002,0.0141968
 6,0.01673069,0.00668598,0.00112393,0.00133078,0.00004479,0.00137171,0.
 00174524,0.00024370,-0.00055773,-0.00067889,-0.00054709,-0.00062126,-0
 .00087697,1.52532072,-0.00040015,-0.00174248,-0.00075742,-0.00324379,0
 .00491602,-0.00440253,-0.00797005,0.00715251,0.00624129,0.04320366,-0.
 07936439,-0.02080279,0.02490896,-0.00397082,-0.00519773,0.00048968,0.0
 0294781,-0.00720497,0.00093992,0.00068762,-0.00016144,0.00021534,-0.00
 049913,-0.00009572,-0.00006751,0.00003269,0.00007424,-0.31248328,0.170
 43047,-0.00049509,-0.00075868,-0.00226119,-0.00496130,-0.00448026,0.00
 153850,-0.01514552,0.00728940,0.01011892,0.03637985,-0.02082586,-0.084
 78530,0.03099452,-0.00623827,-0.00354621,0.00048676,-0.00714258,-0.001
 07002,0.00117027,-0.00011916,0.00083144,0.00035046,-0.00017134,-0.0006
 0475,-0.00014026,0.00002040,-0.00001424,-0.27654508,0.07853079,0.16636
 583,0.00049761,0.00004171,0.00008336,-0.00145913,0.00054538,0.00071530
 ,0.00591826,0.00298347,0.00441816,-0.01396801,0.00783632,0.00740443,0.
 00056675,-0.00499510,-0.00672566,-0.00215502,0.00063513,0.00077767,-0.
 00038582,-0.00136837,-0.00182936,-0.00039677,0.00065226,0.00081719,0.0
 0049874,0.00060205,0.00084286,-1.19057004,0.25605515,0.22900279,1.2021
 8978,0.00003732,0.00040827,0.00026415,0.00093909,-0.00077851,0.0008496
 5,-0.00006301,-0.00095556,-0.00305070,0.00770180,0.01716879,0.00066727
 ,-0.00202394,0.00155865,0.00010058,0.00006018,-0.00062450,0.00110802,-
 0.00022712,-0.00008437,0.00027063,0.00010234,0.00002615,-0.00012447,0.
 00003254,-0.00001565,-0.00010720,0.25612046,-0.09508377,-0.05113226,-0
 .26307876,0.07772746,0.00007740,0.00026462,0.00057247,0.00123967,0.000
 81142,-0.00014726,0.00036171,-0.00275477,-0.00230203,0.00722487,0.0006
 8042,0.01883697,-0.00276964,-0.00018800,0.00081615,0.00001173,0.001163
 80,0.00009861,-0.00031026,0.00015980,-0.00012145,0.00008532,-0.0000710
 4,0.00004079,0.00008520,-0.00005194,0.00000636,0.22909030,-0.05113873,
 -0.08384334,-0.23546797,0.05145552,0.06553919,-0.32219996,0.06057279,0
 .05354583,0.00000356,-0.00005065,-0.00061304,0.00135102,0.00062326,0.0
 0021754,0.00066406,-0.00032847,-0.00029706,-0.00132801,-0.00183866,-0.
 00320149,-0.01763578,0.00544007,0.00499923,-0.00260394,0.00082254,0.00
 123957,0.00189704,0.00081323,0.00129093,0.00050243,-0.00001584,0.00001
 575,-0.00012082,0.00000461,0.00011381,0.00004371,0.00000102,-0.0000145
 7,0.33969176,0.06175336,-0.06273704,-0.02020233,0.01732403,0.00183902,
 -0.00335210,0.00095080,0.00286319,-0.00628835,-0.00041897,-0.00091164,
 -0.00021548,-0.00174037,0.00308233,-0.00461845,-0.01110512,0.00802200,
 0.00231947,-0.00189503,-0.00241270,0.00205737,0.00084371,-0.00072357,-
 0.00056170,0.00087664,0.00032178,0.00035225,0.00003060,-0.00078030,0.0
 0060124,-0.00002172,0.00014649,-0.00008366,-0.06612973,0.05344365,0.05
 511462,-0.02031861,-0.06476375,0.02252223,-0.00503828,0.00109794,0.000
 65476,-0.00632017,-0.00069683,-0.00041762,-0.00020731,-0.00109705,-0.0
 0307115,-0.00462773,-0.00003676,-0.01702838,0.00392793,0.00904712,-0.0
 0237787,0.00231956,-0.00123759,0.00133021,-0.00056455,-0.00086221,0.00
 120423,0.00026634,0.00059159,0.00014839,0.00059869,-0.00041799,-0.0000
 4483,-0.00008145,0.00009492,-0.05778858,0.02737608,0.05890141,0.010100
 00,0.00410176,0.00603989,-0.20758490,-0.07852280,-0.12082343,-0.016577
 63,-0.01247293,-0.01860518,-0.00411847,0.00204882,0.00161509,-0.000355
 34,0.00063414,0.00089346,0.00086361,0.00169032,0.00160573,0.00052069,0
 .00014701,0.00022200,-0.00005584,-0.00003660,-0.00005842,-0.00003278,0
 .00012268,0.00017311,-0.00082443,-0.00062981,-0.00095958,-0.00022467,0
 .00019218,0.00025091,0.00052867,-0.00052620,-0.00024759,0.21669192,-0.
 01423387,-0.00264494,-0.01042386,-0.07864701,-0.08950744,-0.07341173,0
 .00595314,0.00659518,0.00405923,0.00210798,0.00484946,-0.00311071,0.00
 066012,-0.00079536,0.00015113,0.00192861,0.00294424,-0.00589126,-0.001
 04220,0.00032021,-0.00001222,0.00025452,-0.00005758,-0.00010911,0.0000
 3546,-0.00039274,-0.00033960,0.00028465,0.00048104,0.00010787,0.000062
 24,-0.00018927,-0.00001522,-0.00006940,-0.00222793,0.00253566,0.083417
 04,0.08373350,-0.01837458,-0.00864301,-0.00914799,-0.12098883,-0.07339
 981,-0.14959723,0.00593003,0.00226953,0.00757894,0.00169405,-0.0031166
 8,0.00335422,0.00092807,0.00014863,-0.00057265,0.00192203,-0.00591376,
 -0.00017947,-0.00136118,0.00010354,0.00025821,0.00032911,-0.00013757,-
 0.00010773,0.00005709,-0.00033139,-0.00057020,0.00025809,0.00001902,0.
 00047119,0.00007787,-0.00000259,-0.00016918,0.00036088,0.00249125,-0.0
 0078495,0.12950447,0.08372928,0.15100427,-0.00565650,0.00141531,0.0006
 0878,-0.00122499,0.01794454,0.02324735,-0.07811555,0.04461583,0.055870
 70,0.00872937,-0.01408536,-0.01838408,-0.00314920,-0.00156655,-0.00302
 717,-0.00138233,-0.00030498,-0.00047203,-0.00037762,-0.00002730,0.0000
 4263,0.00028766,0.00005323,0.00008340,0.00018266,0.00001112,0.00002522
 ,0.00147539,-0.00088826,-0.00063730,-0.00024687,0.00033257,0.00037780,
 -0.00003895,0.00077836,0.00107447,0.00100463,-0.00053460,-0.00022044,0
 .07799964,0.00132188,0.00512607,-0.00300331,0.00003763,0.00182354,-0.0
 0479728,0.04332173,-0.14956307,-0.13942346,0.00442368,-0.00192185,-0.0
 0866805,-0.00177491,0.00396227,-0.00360573,-0.00021199,-0.00010936,0.0
 0077031,-0.00004271,-0.00085653,0.00044013,-0.00000709,0.00009935,-0.0
 0008092,0.00004235,0.00003864,-0.00004382,0.00010859,-0.00257811,0.002
 09067,-0.00018309,0.00034558,-0.00012042,-0.00011482,-0.00036522,0.000
 07519,-0.00009431,-0.00236237,0.00224402,-0.04709400,0.14645860,0.0004
 8396,-0.00299489,0.00353731,-0.00059719,-0.00305741,0.00129995,0.05414
 762,-0.13929786,-0.22191605,0.00626159,-0.01046523,-0.00841596,-0.0033
 0365,-0.00358602,0.00144499,-0.00034836,0.00076158,0.00027674,0.000022
 21,0.00044148,-0.00060026,0.00000292,-0.00007514,0.00005990,0.00006691
 ,-0.00004689,0.00001872,0.00069003,0.00199380,-0.00141848,-0.00030876,
 -0.00007035,0.00029901,-0.00011489,0.00016203,-0.00022544,0.00036590,0
 .00220118,-0.00108808,-0.05775696,0.15445534,0.22707957,-0.00455821,0.
 00235163,0.00201586,-0.00018574,0.00048778,0.00073577,0.00035247,0.001
 77971,0.00173313,0.00972549,0.00482303,0.00689196,-0.21139117,-0.07989
 750,-0.12294283,-0.01500557,-0.01199030,-0.01783408,-0.00171092,-0.001
 72808,-0.00205092,0.00098746,0.00022495,0.00033069,0.00114937,0.000188
 47,0.00034361,0.00135566,-0.00012473,0.00039185,-0.00022437,-0.0001252
 5,-0.00023528,-0.00072533,-0.00067979,-0.00099836,0.00003289,-0.000115
 55,-0.00004426,0.00049152,0.00025733,0.00037161,0.21916349,0.00230732,
 0.00431024,-0.00326304,0.00048034,-0.00084188,0.00035484,0.00189347,0.
 00267288,-0.00545384,-0.01303599,-0.00182673,-0.01021424,-0.07996639,-
 0.08969172,-0.07264550,0.00464693,0.00690896,0.00402177,0.00021157,-0.
 00202794,0.00300884,-0.00045153,0.00037626,-0.00043068,0.00057460,-0.0
 0116239,-0.00174246,-0.00100293,-0.00262477,0.00225174,0.00032075,0.00
 035133,-0.00014149,0.00033703,0.00037116,0.00021645,-0.00009622,-0.000
 68922,0.00053155,-0.00065660,-0.00008797,-0.00043721,0.08442446,0.0840
 2955,0.00195733,-0.00325842,0.00278060,0.00072647,0.00035498,-0.000530
 19,0.00188357,-0.00546520,-0.00018728,-0.01688924,-0.00847839,-0.00803
 749,-0.12302979,-0.07263960,-0.14964452,0.00431524,0.00240649,0.007852
 02,0.00053117,0.00281939,-0.00046708,-0.00057050,-0.00036438,0.0001259
 8,0.00085840,-0.00178006,-0.00209683,-0.00077747,0.00233719,-0.0013525
 2,0.00035855,-0.00018482,0.00026973,0.00035576,0.00011772,0.00042439,-
 0.00001848,0.00052963,-0.00039199,-0.00084533,-0.00034856,-0.00035352,
 0.13106244,0.08387474,0.15161367,0.00068353,-0.00057742,-0.00075195,-0
 .00030573,-0.00016493,-0.00021533,-0.00016457,0.00008100,0.00009030,0.
 00028606,0.00011288,0.00016457,-0.00050688,0.00029187,0.00035949,-0.00
 466057,-0.00128905,-0.00261297,0.02007557,-0.02612400,-0.03319823,-0.0
 0316742,0.00366623,0.00512366,-0.11851271,0.11951172,0.14899786,0.0000
 9069,-0.00000977,-0.00000619,-0.00008415,-0.00000144,-0.00000718,-0.00
 002944,-0.00004059,-0.00007454,0.00003165,-0.00006116,-0.00007241,0.00
 002113,0.00000973,0.00001706,0.00054295,0.00001318,0.00008188,0.105699
 88,0.00034151,0.00002395,-0.00061020,-0.00038321,-0.00018364,0.0001876
 6,0.00003920,0.00008159,0.00009014,0.00011133,0.00012555,-0.00000558,-
 0.00028708,0.00019095,0.00050257,-0.00213916,0.00321345,-0.00204684,0.
 00158622,-0.01249083,-0.02180481,0.00452054,-0.00173822,0.00574011,0.0
 9153407,-0.17524120,-0.20407809,0.00009380,-0.00000439,-0.00002370,-0.
 00008743,-0.00000109,0.00002970,-0.00006697,0.00006879,-0.00015780,0.0
 0002492,-0.00005679,0.00000800,0.00000670,-0.00000958,0.00001559,0.000
 12383,-0.00006774,0.00007928,-0.09541826,0.18608919,0.00047100,-0.0006
 9906,-0.00037714,-0.00050473,0.00020892,-0.00012390,0.00003430,0.00009
 395,0.00014524,0.00016223,-0.00000530,0.00014661,-0.00041045,0.0005580
 8,0.00049548,-0.00374333,-0.00196985,0.00161614,0.00366613,-0.02447875
 ,-0.02820823,0.00626553,0.00565465,0.00241219,0.11177108,-0.20136975,-
 0.27225599,0.00013166,-0.00003370,-0.00001185,-0.00012161,0.00003802,0
 .00000905,-0.00010967,-0.00015534,-0.00003479,0.00004212,-0.00000026,-
 0.00005736,0.00001296,0.00001589,0.00000161,0.00022880,0.00006853,-0.0
 0000497,-0.11789602,0.22207398,0.29624790\\-0.00001403,-0.00002135,-0.
 00003579,0.00008480,0.00000377,0.00001751,-0.00010487,-0.00000661,-0.0
 0001969,-0.00009936,0.00010162,0.00013050,0.00002245,-0.00004827,-0.00
 006809,0.00002498,0.00004018,-0.00000323,-0.00009938,-0.00009980,0.000
 05739,0.00004657,0.00004137,-0.00001672,0.00002249,0.00004821,0.000007
 02,0.00004344,-0.00008092,-0.00010221,0.00003435,0.00001862,0.00002761
 ,0.00001469,0.00001558,0.00002193,0.00000547,0.00000186,0.00000360,0.0
 0002073,0.00000314,0.00000556,-0.00001234,0.00000105,-0.00000058,0.000
 01001,-0.00001847,-0.00002482\\\@
 The archive entry for this job was punched.


 ON A TOMBSTONE, "HERE LIES LESTER MOORE,
 FOUR SLUGS FROM A 44, NO LES, NO MORE".
 Job cpu time:       0 days 16 hours 18 minutes 30.5 seconds.
 Elapsed time:       0 days  0 hours 24 minutes 28.7 seconds.
 File lengths (MBytes):  RWF=    443 Int=      0 D2E=      0 Chk=     35 Scr=      1
 Normal termination of Gaussian 16 at Tue Sep  6 16:56:57 2022.
