 Entering Gaussian System, Link 0=g16
 Initial command:
 /usr/local/gaussian16c01/g16/l1.exe "/scr/dhuang/Gau-114505.inp" -scrdir="/scr/dhuang/"
 Entering Link 1 = /usr/local/gaussian16c01/g16/l1.exe PID=    114507.
  
 Copyright (c) 1988-2019, Gaussian, Inc.  All Rights Reserved.
  
 This is part of the Gaussian(R) 16 program.  It is based on
 the Gaussian(R) 09 system (copyright 2009, Gaussian, Inc.),
 the Gaussian(R) 03 system (copyright 2003, Gaussian, Inc.),
 the Gaussian(R) 98 system (copyright 1998, Gaussian, Inc.),
 the Gaussian(R) 94 system (copyright 1995, Gaussian, Inc.),
 the Gaussian 92(TM) system (copyright 1992, Gaussian, Inc.),
 the Gaussian 90(TM) system (copyright 1990, Gaussian, Inc.),
 the Gaussian 88(TM) system (copyright 1988, Gaussian, Inc.),
 the Gaussian 86(TM) system (copyright 1986, Carnegie Mellon
 University), and the Gaussian 82(TM) system (copyright 1983,
 Carnegie Mellon University). Gaussian is a federally registered
 trademark of Gaussian, Inc.
  
 This software contains proprietary and confidential information,
 including trade secrets, belonging to Gaussian, Inc.
  
 This software is provided under written license and may be
 used, copied, transmitted, or stored only in accord with that
 written license.
  
 The following legend is applicable only to US Government
 contracts under FAR:
  
                    RESTRICTED RIGHTS LEGEND
  
 Use, reproduction and disclosure by the US Government is
 subject to restrictions as set forth in subparagraphs (a)
 and (c) of the Commercial Computer Software - Restricted
 Rights clause in FAR 52.227-19.
  
 Gaussian, Inc.
 340 Quinnipiac St., Bldg. 40, Wallingford CT 06492
  
  
 ---------------------------------------------------------------
 Warning -- This program may not be used in any manner that
 competes with the business of Gaussian, Inc. or will provide
 assistance to any competitor of Gaussian, Inc.  The licensee
 of this program is prohibited from giving any competitor of
 Gaussian, Inc. access to this program.  By using this program,
 the user acknowledges that Gaussian, Inc. is engaged in the
 business of creating and licensing software in the field of
 computational chemistry and represents and warrants to the
 licensee that it is not a competitor of Gaussian, Inc. and that
 it will not use this program in any manner prohibited above.
 ---------------------------------------------------------------
  

 Cite this work as:
 Gaussian 16, Revision C.01,
 M. J. Frisch, G. W. Trucks, H. B. Schlegel, G. E. Scuseria, 
 M. A. Robb, J. R. Cheeseman, G. Scalmani, V. Barone, 
 G. A. Petersson, H. Nakatsuji, X. Li, M. Caricato, A. V. Marenich, 
 J. Bloino, B. G. Janesko, R. Gomperts, B. Mennucci, H. P. Hratchian, 
 J. V. Ortiz, A. F. Izmaylov, J. L. Sonnenberg, D. Williams-Young, 
 F. Ding, F. Lipparini, F. Egidi, J. Goings, B. Peng, A. Petrone, 
 T. Henderson, D. Ranasinghe, V. G. Zakrzewski, J. Gao, N. Rega, 
 G. Zheng, W. Liang, M. Hada, M. Ehara, K. Toyota, R. Fukuda, 
 J. Hasegawa, M. Ishida, T. Nakajima, Y. Honda, O. Kitao, H. Nakai, 
 T. Vreven, K. Throssell, J. A. Montgomery, Jr., J. E. Peralta, 
 F. Ogliaro, M. J. Bearpark, J. J. Heyd, E. N. Brothers, K. N. Kudin, 
 V. N. Staroverov, T. A. Keith, R. Kobayashi, J. Normand, 
 K. Raghavachari, A. P. Rendell, J. C. Burant, S. S. Iyengar, 
 J. Tomasi, M. Cossi, J. M. Millam, M. Klene, C. Adamo, R. Cammi, 
 J. W. Ochterski, R. L. Martin, K. Morokuma, O. Farkas, 
 J. B. Foresman, and D. J. Fox, Gaussian, Inc., Wallingford CT, 2019.
 
 ******************************************
 Gaussian 16:  ES64L-G16RevC.01  3-Jul-2019
                 6-Sep-2022 
 ******************************************
 %nprocshared=40
 Will use up to   40 processors via shared memory.
 %mem=10000MW
 %chk=3-NO2.chk
 ------------------------------------
 # opt freq M062x/aug-cc-pvtz pop=nbo
 ------------------------------------
 1/18=20,19=15,26=3,38=1/1,3;
 2/9=110,12=2,17=6,18=5,40=1/2;
 3/5=16,6=1,7=10,11=2,25=1,30=1,71=1,74=-55/1,2,3;
 4//1;
 5/5=2,38=5/2;
 6/7=2,8=2,9=2,10=2,28=1,40=1/1,7;
 7//1,2,3,16;
 1/18=20,19=15,26=3/3(2);
 2/9=110/2;
 99//99;
 2/9=110/2;
 3/5=16,6=1,7=10,11=2,25=1,30=1,71=1,74=-55/1,2,3;
 4/5=5,16=3,69=1/1;
 5/5=2,38=5/2;
 7//1,2,3,16;
 1/18=20,19=15,26=3/3(-5);
 2/9=110/2;
 6/7=2,8=2,9=2,10=2,19=2,28=1,40=1/1,7;
 99/9=1/99;
 ------------------
 3-NO2_benzoic-acid
 ------------------
 Symbolic Z-matrix:
 Charge =  0 Multiplicity = 1
 C                    -1.8627   -0.3513   -0.5926 
 C                    -1.5161   -1.1445   -1.617 
 C                    -0.225    -1.4182   -1.8585 
 C                     0.75     -0.907    -1.082 
 C                     0.3803   -0.1141   -0.0581 
 C                    -0.9088    0.1717    0.1975 
 C                    -1.2119    0.9837    1.2483 
 O                    -2.3409    1.2997    1.5535 
 O                    -0.2581    1.5194    2.0531 
 N                     1.9652   -1.1503   -1.2914 
 O                     2.9345   -0.6644   -0.5491 
 O                     2.3717   -1.9129   -2.2757 
 H                    -2.9345   -0.151    -0.4299 
 H                    -2.2986   -1.5738   -2.2659 
 H                     0.0042   -2.0755   -2.7145 
 H                     1.1598    0.3165    0.5915 
 H                    -0.7005    2.0755    2.7145 
 

 GradGradGradGradGradGradGradGradGradGradGradGradGradGradGradGradGradGrad
 Berny optimization.
 Initialization pass.
                           ----------------------------
                           !    Initial Parameters    !
                           ! (Angstroms and Degrees)  !
 --------------------------                            --------------------------
 ! Name  Definition              Value          Derivative Info.                !
 --------------------------------------------------------------------------------
 ! R1    R(1,2)                  1.3412         estimate D2E/DX2                !
 ! R2    R(1,6)                  1.3445         estimate D2E/DX2                !
 ! R3    R(1,13)                 1.1024         estimate D2E/DX2                !
 ! R4    R(2,3)                  1.3417         estimate D2E/DX2                !
 ! R5    R(2,14)                 1.1035         estimate D2E/DX2                !
 ! R6    R(3,4)                  1.3472         estimate D2E/DX2                !
 ! R7    R(3,15)                 1.1033         estimate D2E/DX2                !
 ! R8    R(4,5)                  1.3468         estimate D2E/DX2                !
 ! R9    R(4,10)                 1.2569         estimate D2E/DX2                !
 ! R10   R(5,6)                  1.3449         estimate D2E/DX2                !
 ! R11   R(5,16)                 1.1023         estimate D2E/DX2                !
 ! R12   R(6,7)                  1.3621         estimate D2E/DX2                !
 ! R13   R(7,8)                  1.2115         estimate D2E/DX2                !
 ! R14   R(7,9)                  1.3581         estimate D2E/DX2                !
 ! R15   R(9,17)                 0.9708         estimate D2E/DX2                !
 ! R16   R(10,11)                1.314          estimate D2E/DX2                !
 ! R17   R(10,12)                1.3098         estimate D2E/DX2                !
 ! A1    A(2,1,6)              119.707          estimate D2E/DX2                !
 ! A2    A(2,1,13)             118.1277         estimate D2E/DX2                !
 ! A3    A(6,1,13)             122.1653         estimate D2E/DX2                !
 ! A4    A(1,2,3)              120.4522         estimate D2E/DX2                !
 ! A5    A(1,2,14)             119.7352         estimate D2E/DX2                !
 ! A6    A(3,2,14)             119.8126         estimate D2E/DX2                !
 ! A7    A(2,3,4)              121.0162         estimate D2E/DX2                !
 ! A8    A(2,3,15)             117.4567         estimate D2E/DX2                !
 ! A9    A(4,3,15)             121.5271         estimate D2E/DX2                !
 ! A10   A(3,4,5)              117.5773         estimate D2E/DX2                !
 ! A11   A(3,4,10)             122.0223         estimate D2E/DX2                !
 ! A12   A(5,4,10)             120.4003         estimate D2E/DX2                !
 ! A13   A(4,5,6)              122.1895         estimate D2E/DX2                !
 ! A14   A(4,5,16)             118.9413         estimate D2E/DX2                !
 ! A15   A(6,5,16)             118.8691         estimate D2E/DX2                !
 ! A16   A(1,6,5)              119.0577         estimate D2E/DX2                !
 ! A17   A(1,6,7)              121.8265         estimate D2E/DX2                !
 ! A18   A(5,6,7)              119.1158         estimate D2E/DX2                !
 ! A19   A(6,7,8)              123.8633         estimate D2E/DX2                !
 ! A20   A(6,7,9)              122.4129         estimate D2E/DX2                !
 ! A21   A(8,7,9)              113.7235         estimate D2E/DX2                !
 ! A22   A(7,9,17)             108.0377         estimate D2E/DX2                !
 ! A23   A(4,10,11)            123.1957         estimate D2E/DX2                !
 ! A24   A(4,10,12)            122.5444         estimate D2E/DX2                !
 ! A25   A(11,10,12)           114.2598         estimate D2E/DX2                !
 ! D1    D(6,1,2,3)             -0.0481         estimate D2E/DX2                !
 ! D2    D(6,1,2,14)          -179.9856         estimate D2E/DX2                !
 ! D3    D(13,1,2,3)           179.9329         estimate D2E/DX2                !
 ! D4    D(13,1,2,14)           -0.0047         estimate D2E/DX2                !
 ! D5    D(2,1,6,5)             -0.0179         estimate D2E/DX2                !
 ! D6    D(2,1,6,7)            179.9142         estimate D2E/DX2                !
 ! D7    D(13,1,6,5)          -179.998          estimate D2E/DX2                !
 ! D8    D(13,1,6,7)            -0.0659         estimate D2E/DX2                !
 ! D9    D(1,2,3,4)              0.052          estimate D2E/DX2                !
 ! D10   D(1,2,3,15)          -179.9451         estimate D2E/DX2                !
 ! D11   D(14,2,3,4)           179.9895         estimate D2E/DX2                !
 ! D12   D(14,2,3,15)           -0.0076         estimate D2E/DX2                !
 ! D13   D(2,3,4,5)              0.0105         estimate D2E/DX2                !
 ! D14   D(2,3,4,10)          -179.9611         estimate D2E/DX2                !
 ! D15   D(15,3,4,5)          -179.9925         estimate D2E/DX2                !
 ! D16   D(15,3,4,10)            0.036          estimate D2E/DX2                !
 ! D17   D(3,4,5,6)             -0.0786         estimate D2E/DX2                !
 ! D18   D(3,4,5,16)          -179.9835         estimate D2E/DX2                !
 ! D19   D(10,4,5,6)           179.8934         estimate D2E/DX2                !
 ! D20   D(10,4,5,16)           -0.0115         estimate D2E/DX2                !
 ! D21   D(3,4,10,11)         -179.9947         estimate D2E/DX2                !
 ! D22   D(3,4,10,12)            0.1065         estimate D2E/DX2                !
 ! D23   D(5,4,10,11)            0.0346         estimate D2E/DX2                !
 ! D24   D(5,4,10,12)         -179.8643         estimate D2E/DX2                !
 ! D25   D(4,5,6,1)              0.083          estimate D2E/DX2                !
 ! D26   D(4,5,6,7)           -179.851          estimate D2E/DX2                !
 ! D27   D(16,5,6,1)           179.9879         estimate D2E/DX2                !
 ! D28   D(16,5,6,7)             0.054          estimate D2E/DX2                !
 ! D29   D(1,6,7,8)             -0.1384         estimate D2E/DX2                !
 ! D30   D(1,6,7,9)           -179.9343         estimate D2E/DX2                !
 ! D31   D(5,6,7,8)            179.7936         estimate D2E/DX2                !
 ! D32   D(5,6,7,9)             -0.0022         estimate D2E/DX2                !
 ! D33   D(6,7,9,17)           178.6766         estimate D2E/DX2                !
 ! D34   D(8,7,9,17)            -1.1383         estimate D2E/DX2                !
 --------------------------------------------------------------------------------
 Trust Radius=3.00D-01 FncErr=1.00D-07 GrdErr=1.00D-06 EigMax=2.50D+02 EigMin=1.00D-04
 Number of steps in this run=     86 maximum allowed number of steps=    102.
 GradGradGradGradGradGradGradGradGradGradGradGradGradGradGradGradGradGrad

                          Input orientation:                          
 ---------------------------------------------------------------------
 Center     Atomic      Atomic             Coordinates (Angstroms)
 Number     Number       Type             X           Y           Z
 ---------------------------------------------------------------------
      1          6           0       -1.862700   -0.351300   -0.592600
      2          6           0       -1.516100   -1.144500   -1.617000
      3          6           0       -0.225000   -1.418200   -1.858500
      4          6           0        0.750000   -0.907000   -1.082000
      5          6           0        0.380300   -0.114100   -0.058100
      6          6           0       -0.908800    0.171700    0.197500
      7          6           0       -1.211900    0.983700    1.248300
      8          8           0       -2.340900    1.299700    1.553500
      9          8           0       -0.258100    1.519400    2.053100
     10          7           0        1.965200   -1.150300   -1.291400
     11          8           0        2.934500   -0.664400   -0.549100
     12          8           0        2.371700   -1.912900   -2.275700
     13          1           0       -2.934500   -0.151000   -0.429900
     14          1           0       -2.298600   -1.573800   -2.265900
     15          1           0        0.004200   -2.075500   -2.714500
     16          1           0        1.159800    0.316500    0.591500
     17          1           0       -0.700500    2.075500    2.714500
 ---------------------------------------------------------------------
                    Distance matrix (angstroms):
                    1          2          3          4          5
     1  C    0.000000
     2  C    1.341154   0.000000
     3  C    2.328699   1.341705   0.000000
     4  C    2.715606   2.340479   1.347183   0.000000
     5  C    2.317974   2.662372   2.304019   1.346752   0.000000
     6  C    1.344512   2.322414   2.687471   2.356339   1.344913
     7  C    2.365307   3.582139   4.049111   3.585261   2.333869
     8  O    2.749586   4.087356   4.848274   4.622667   3.464248
     9  O    3.615797   4.706226   4.891953   4.090542   2.744639
    10  N    3.972347   3.496498   2.278234   1.256883   2.259789
    11  O    4.807604   4.602037   3.502168   2.261609   2.658543
    12  O    4.816800   4.017376   2.676123   2.250925   3.481251
    13  H    1.102428   2.099549   3.314828   3.817370   3.335790
    14  H    2.117652   1.103484   2.118963   3.337694   3.765848
    15  H    3.310686   2.093461   1.103319   2.141650   3.323402
    16  H    3.314145   3.764629   3.305958   2.113171   1.102278
    17  H    4.263447   5.458525   5.774458   5.041098   3.694562
                    6          7          8          9         10
     6  C    0.000000
     7  C    1.362129   0.000000
     8  O    2.272010   1.211464   0.000000
     9  O    2.383895   1.358091   2.153120   0.000000
    10  N    3.496339   4.593256   5.713007   4.822452   0.000000
    11  O    4.003427   4.810355   6.009032   4.661880   1.314021
    12  O    4.606946   5.800953   6.869656   6.118418   1.309827
    13  H    2.145047   2.659182   2.527997   4.014803   5.074233
    14  H    3.323651   4.480103   4.779813   5.690807   4.394200
    15  H    3.789884   5.151833   5.925141   5.976798   2.593594
    16  H    2.110760   2.549804   3.761253   2.365097   2.519024
    17  H    3.162773   1.898236   2.154228   0.970781   5.793011
                   11         12         13         14         15
    11  O    0.000000
    12  O    2.203779   0.000000
    13  H    5.892618   5.887871   0.000000
    14  H    5.582092   4.682605   2.408241   0.000000
    15  H    3.907278   2.413305   4.190353   2.399132   0.000000
    16  H    2.326520   3.828807   4.245599   4.868110   4.241074
    17  H    5.601014   7.088571   4.453685   6.377750   6.870331
                   16         17
    16  H    0.000000
    17  H    3.325947   0.000000
 Stoichiometry    C7H5NO4
 Framework group  C1[X(C7H5NO4)]
 Deg. of freedom    45
 Full point group                 C1      NOp   1
 Largest Abelian subgroup         C1      NOp   1
 Largest concise Abelian subgroup C1      NOp   1
                         Standard orientation:                         
 ---------------------------------------------------------------------
 Center     Atomic      Atomic             Coordinates (Angstroms)
 Number     Number       Type             X           Y           Z
 ---------------------------------------------------------------------
      1          6           0       -1.068541    1.594392   -0.001132
      2          6           0        0.130365    2.195489   -0.000453
      3          6           0        1.256634    1.466318    0.000013
      4          6           0        1.211882    0.119879   -0.001237
      5          6           0       -0.001912   -0.463593   -0.003184
      6          6           0       -1.140759    0.251821   -0.002326
      7          6           0       -2.335002   -0.403296   -0.001319
      8          8           0       -3.410657    0.154011    0.003124
      9          8           0       -2.421824   -1.758609   -0.001191
     10          7           0        2.254791   -0.581616   -0.000105
     11          8           0        2.238044   -1.895529   -0.001382
     12          8           0        3.455705   -0.058708    0.004412
     13          1           0       -1.968892    2.230563   -0.000359
     14          1           0        0.190180    3.297350    0.000767
     15          1           0        2.215740    2.011684    0.001503
     16          1           0       -0.064743   -1.564079   -0.003959
     17          1           0       -3.361959   -1.999593    0.020910
 ---------------------------------------------------------------------
 Rotational constants (GHZ):           1.9583006           0.6528966           0.4896493
 Standard basis: Aug-CC-pVTZ (5D, 7F)
 There are   785 symmetry adapted cartesian basis functions of A   symmetry.
 There are   667 symmetry adapted basis functions of A   symmetry.
   667 basis functions,   999 primitive gaussians,   785 cartesian basis functions
    43 alpha electrons       43 beta electrons
       nuclear repulsion energy       676.4724714414 Hartrees.
 NAtoms=   17 NActive=   17 NUniq=   17 SFac= 1.00D+00 NAtFMM=   60 NAOKFM=F Big=F
 Integral buffers will be    131072 words long.
 Raffenetti 2 integral format.
 Two-electron integral symmetry is turned on.
 One-electron integrals computed using PRISM.
 NBasis=   667 RedAO= T EigKep=  1.23D-06  NBF=   667
 NBsUse=   664 1.00D-06 EigRej=  9.63D-07 NBFU=   664
 ExpMin= 2.53D-02 ExpMax= 1.53D+04 ExpMxC= 5.22D+02 IAcc=3 IRadAn=         5 AccDes= 0.00D+00
 Harris functional with IExCor= 1009 and IRadAn=       5 diagonalized for initial guess.
 HarFok:  IExCor= 1009 AccDes= 0.00D+00 IRadAn=         5 IDoV= 1 UseB2=F ITyADJ=14
 ICtDFT=  3500011 ScaDFX=  1.000000  1.000000  1.000000  1.000000
 FoFCou: FMM=F IPFlag=           0 FMFlag=      100000 FMFlg1=           0
         NFxFlg=           0 DoJE=T BraDBF=F KetDBF=T FulRan=T
         wScrn=  0.000000 ICntrl=       500 IOpCl=  0 I1Cent=   200000004 NGrid=           0
         NMat0=    1 NMatS0=      1 NMatT0=    0 NMatD0=    1 NMtDS0=    0 NMtDT0=    0
 Petite list used in FoFCou.
 Requested convergence on RMS density matrix=1.00D-08 within 128 cycles.
 Requested convergence on MAX density matrix=1.00D-06.
 Requested convergence on             energy=1.00D-06.
 No special actions if energy rises.
 SCF Done:  E(RM062X) =  -625.243095458     A.U. after   15 cycles
            NFock= 15  Conv=0.23D-08     -V/T= 2.0034

 **********************************************************************

            Population analysis using the SCF Density.

 **********************************************************************

 Orbital symmetries:
       Occupied  (A) (A) (A) (A) (A) (A) (A) (A) (A) (A) (A) (A)
                 (A) (A) (A) (A) (A) (A) (A) (A) (A) (A) (A) (A)
                 (A) (A) (A) (A) (A) (A) (A) (A) (A) (A) (A) (A)
                 (A) (A) (A) (A) (A) (A) (A)
       Virtual   (A) (A) (A) (A) (A) (A) (A) (A) (A) (A) (A) (A)
                 (A) (A) (A) (A) (A) (A) (A) (A) (A) (A) (A) (A)
                 (A) (A) (A) (A) (A) (A) (A) (A) (A) (A) (A) (A)
                 (A) (A) (A) (A) (A) (A) (A) (A) (A) (A) (A) (A)
                 (A) (A) (A) (A) (A) (A) (A) (A) (A) (A) (A) (A)
                 (A) (A) (A) (A) (A) (A) (A) (A) (A) (A) (A) (A)
                 (A) (A) (A) (A) (A) (A) (A) (A) (A) (A) (A) (A)
                 (A) (A) (A) (A) (A) (A) (A) (A) (A) (A) (A) (A)
                 (A) (A) (A) (A) (A) (A) (A) (A) (A) (A) (A) (A)
                 (A) (A) (A) (A) (A) (A) (A) (A) (A) (A) (A) (A)
                 (A) (A) (A) (A) (A) (A) (A) (A) (A) (A) (A) (A)
                 (A) (A) (A) (A) (A) (A) (A) (A) (A) (A) (A) (A)
                 (A) (A) (A) (A) (A) (A) (A) (A) (A) (A) (A) (A)
                 (A) (A) (A) (A) (A) (A) (A) (A) (A) (A) (A) (A)
                 (A) (A) (A) (A) (A) (A) (A) (A) (A) (A) (A) (A)
                 (A) (A) (A) (A) (A) (A) (A) (A) (A) (A) (A) (A)
                 (A) (A) (A) (A) (A) (A) (A) (A) (A) (A) (A) (A)
                 (A) (A) (A) (A) (A) (A) (A) (A) (A) (A) (A) (A)
                 (A) (A) (A) (A) (A) (A) (A) (A) (A) (A) (A) (A)
                 (A) (A) (A) (A) (A) (A) (A) (A) (A) (A) (A) (A)
                 (A) (A) (A) (A) (A) (A) (A) (A) (A) (A) (A) (A)
                 (A) (A) (A) (A) (A) (A) (A) (A) (A) (A) (A) (A)
                 (A) (A) (A) (A) (A) (A) (A) (A) (A) (A) (A) (A)
                 (A) (A) (A) (A) (A) (A) (A) (A) (A) (A) (A) (A)
                 (A) (A) (A) (A) (A) (A) (A) (A) (A) (A) (A) (A)
                 (A) (A) (A) (A) (A) (A) (A) (A) (A) (A) (A) (A)
                 (A) (A) (A) (A) (A) (A) (A) (A) (A) (A) (A) (A)
                 (A) (A) (A) (A) (A) (A) (A) (A) (A) (A) (A) (A)
                 (A) (A) (A) (A) (A) (A) (A) (A) (A) (A) (A) (A)
                 (A) (A) (A) (A) (A) (A) (A) (A) (A) (A) (A) (A)
                 (A) (A) (A) (A) (A) (A) (A) (A) (A) (A) (A) (A)
                 (A) (A) (A) (A) (A) (A) (A) (A) (A) (A) (A) (A)
                 (A) (A) (A) (A) (A) (A) (A) (A) (A) (A) (A) (A)
                 (A) (A) (A) (A) (A) (A) (A) (A) (A) (A) (A) (A)
                 (A) (A) (A) (A) (A) (A) (A) (A) (A) (A) (A) (A)
                 (A) (A) (A) (A) (A) (A) (A) (A) (A) (A) (A) (A)
                 (A) (A) (A) (A) (A) (A) (A) (A) (A) (A) (A) (A)
                 (A) (A) (A) (A) (A) (A) (A) (A) (A) (A) (A) (A)
                 (A) (A) (A) (A) (A) (A) (A) (A) (A) (A) (A) (A)
                 (A) (A) (A) (A) (A) (A) (A) (A) (A) (A) (A) (A)
                 (A) (A) (A) (A) (A) (A) (A) (A) (A) (A) (A) (A)
                 (A) (A) (A) (A) (A) (A) (A) (A) (A) (A) (A) (A)
                 (A) (A) (A) (A) (A) (A) (A) (A) (A) (A) (A) (A)
                 (A) (A) (A) (A) (A) (A) (A) (A) (A) (A) (A) (A)
                 (A) (A) (A) (A) (A) (A) (A) (A) (A) (A) (A) (A)
                 (A) (A) (A) (A) (A) (A) (A) (A) (A) (A) (A) (A)
                 (A) (A) (A) (A) (A) (A) (A) (A) (A) (A) (A) (A)
                 (A) (A) (A) (A) (A) (A) (A) (A) (A) (A) (A) (A)
                 (A) (A) (A) (A) (A) (A) (A) (A) (A) (A) (A) (A)
                 (A) (A) (A) (A) (A) (A) (A) (A) (A) (A) (A) (A)
                 (A) (A) (A) (A) (A) (A) (A) (A) (A) (A) (A) (A)
                 (A) (A) (A) (A) (A) (A) (A) (A) (A)
 The electronic state is 1-A.
 Alpha  occ. eigenvalues --  -19.68496 -19.67038 -19.66937 -19.63056 -15.00093
 Alpha  occ. eigenvalues --  -10.69557 -10.62109 -10.60088 -10.59975 -10.59910
 Alpha  occ. eigenvalues --  -10.58941 -10.58544  -1.32740  -1.26084  -1.15020
 Alpha  occ. eigenvalues --   -1.12856  -1.07416  -1.00213  -0.93859  -0.86065
 Alpha  occ. eigenvalues --   -0.81137  -0.74905  -0.69045  -0.67004  -0.64065
 Alpha  occ. eigenvalues --   -0.62987  -0.61800  -0.59930  -0.58722  -0.57130
 Alpha  occ. eigenvalues --   -0.55836  -0.54519  -0.50806  -0.49900  -0.47336
 Alpha  occ. eigenvalues --   -0.46310  -0.41829  -0.41741  -0.37954  -0.37902
 Alpha  occ. eigenvalues --   -0.37335  -0.37094  -0.36812
 Alpha virt. eigenvalues --   -0.11466  -0.05886  -0.01648  -0.00517   0.00681
 Alpha virt. eigenvalues --    0.00973   0.01383   0.01837   0.02692   0.03939
 Alpha virt. eigenvalues --    0.04587   0.04966   0.05449   0.05755   0.06482
 Alpha virt. eigenvalues --    0.07060   0.07126   0.07447   0.08440   0.08885
 Alpha virt. eigenvalues --    0.09295   0.09849   0.09901   0.10039   0.10343
 Alpha virt. eigenvalues --    0.10560   0.10628   0.11431   0.12315   0.13346
 Alpha virt. eigenvalues --    0.13623   0.14337   0.15187   0.15307   0.15759
 Alpha virt. eigenvalues --    0.16133   0.17108   0.17495   0.18407   0.18478
 Alpha virt. eigenvalues --    0.18697   0.19248   0.19474   0.20020   0.20526
 Alpha virt. eigenvalues --    0.20807   0.21151   0.21600   0.22002   0.22205
 Alpha virt. eigenvalues --    0.22579   0.23048   0.23233   0.23477   0.24119
 Alpha virt. eigenvalues --    0.24503   0.24752   0.25241   0.26303   0.26756
 Alpha virt. eigenvalues --    0.26871   0.26936   0.27767   0.28727   0.29088
 Alpha virt. eigenvalues --    0.29600   0.30466   0.30612   0.31789   0.32074
 Alpha virt. eigenvalues --    0.32577   0.33048   0.33249   0.33432   0.33763
 Alpha virt. eigenvalues --    0.34789   0.34917   0.35274   0.36238   0.36787
 Alpha virt. eigenvalues --    0.37209   0.37539   0.37649   0.37872   0.38078
 Alpha virt. eigenvalues --    0.38981   0.39384   0.40059   0.40599   0.41097
 Alpha virt. eigenvalues --    0.41895   0.42045   0.42968   0.43465   0.44504
 Alpha virt. eigenvalues --    0.44913   0.45757   0.46369   0.46657   0.47227
 Alpha virt. eigenvalues --    0.48918   0.49045   0.49193   0.49835   0.50871
 Alpha virt. eigenvalues --    0.51881   0.52496   0.53314   0.54314   0.54480
 Alpha virt. eigenvalues --    0.55088   0.55162   0.56239   0.57553   0.57721
 Alpha virt. eigenvalues --    0.58275   0.59173   0.60381   0.60883   0.62331
 Alpha virt. eigenvalues --    0.62535   0.63050   0.63146   0.64130   0.64710
 Alpha virt. eigenvalues --    0.65147   0.65579   0.65903   0.67586   0.68887
 Alpha virt. eigenvalues --    0.68926   0.69365   0.70117   0.70464   0.70751
 Alpha virt. eigenvalues --    0.70944   0.71764   0.72113   0.72238   0.73235
 Alpha virt. eigenvalues --    0.74188   0.74737   0.75454   0.76266   0.76305
 Alpha virt. eigenvalues --    0.77372   0.77480   0.77732   0.77774   0.78851
 Alpha virt. eigenvalues --    0.79427   0.80108   0.80229   0.80713   0.81038
 Alpha virt. eigenvalues --    0.81790   0.82005   0.82707   0.83794   0.83898
 Alpha virt. eigenvalues --    0.85507   0.85960   0.86721   0.87013   0.87164
 Alpha virt. eigenvalues --    0.88171   0.88561   0.89537   0.89956   0.90311
 Alpha virt. eigenvalues --    0.90419   0.91334   0.91520   0.92553   0.92748
 Alpha virt. eigenvalues --    0.93228   0.93796   0.94518   0.95270   0.95908
 Alpha virt. eigenvalues --    0.95953   0.96447   0.97802   0.98186   0.98894
 Alpha virt. eigenvalues --    0.99572   0.99712   1.00502   1.02254   1.03395
 Alpha virt. eigenvalues --    1.03997   1.04290   1.04877   1.05006   1.05793
 Alpha virt. eigenvalues --    1.06269   1.06798   1.07381   1.08757   1.09062
 Alpha virt. eigenvalues --    1.09697   1.10261   1.10642   1.12176   1.12297
 Alpha virt. eigenvalues --    1.13438   1.14763   1.15957   1.16498   1.16579
 Alpha virt. eigenvalues --    1.18260   1.18345   1.20065   1.20265   1.20864
 Alpha virt. eigenvalues --    1.21723   1.22170   1.23592   1.24654   1.25579
 Alpha virt. eigenvalues --    1.25729   1.27125   1.28492   1.30145   1.30324
 Alpha virt. eigenvalues --    1.31555   1.31701   1.32798   1.33435   1.35244
 Alpha virt. eigenvalues --    1.35490   1.37798   1.38085   1.39327   1.39516
 Alpha virt. eigenvalues --    1.39826   1.41532   1.42319   1.42851   1.43919
 Alpha virt. eigenvalues --    1.45453   1.46012   1.46521   1.46790   1.47712
 Alpha virt. eigenvalues --    1.48830   1.49121   1.51984   1.52447   1.53089
 Alpha virt. eigenvalues --    1.53633   1.54614   1.56726   1.56994   1.57694
 Alpha virt. eigenvalues --    1.59024   1.60185   1.62494   1.62811   1.63050
 Alpha virt. eigenvalues --    1.63211   1.64447   1.65442   1.66593   1.67688
 Alpha virt. eigenvalues --    1.67737   1.68331   1.68549   1.70238   1.71028
 Alpha virt. eigenvalues --    1.71316   1.74301   1.76577   1.76932   1.78380
 Alpha virt. eigenvalues --    1.79072   1.79610   1.79812   1.81811   1.82944
 Alpha virt. eigenvalues --    1.83483   1.85036   1.85296   1.85528   1.86964
 Alpha virt. eigenvalues --    1.89183   1.89941   1.90378   1.90777   1.93021
 Alpha virt. eigenvalues --    1.93089   1.93662   1.94000   1.96700   1.97518
 Alpha virt. eigenvalues --    1.98802   1.99244   2.01046   2.02268   2.03016
 Alpha virt. eigenvalues --    2.04168   2.04767   2.05364   2.07986   2.08281
 Alpha virt. eigenvalues --    2.08719   2.09630   2.11164   2.11931   2.12756
 Alpha virt. eigenvalues --    2.13247   2.15436   2.15650   2.16717   2.17667
 Alpha virt. eigenvalues --    2.17909   2.19971   2.20819   2.21386   2.21542
 Alpha virt. eigenvalues --    2.24043   2.25414   2.26176   2.28122   2.29484
 Alpha virt. eigenvalues --    2.29722   2.31782   2.32943   2.33303   2.34289
 Alpha virt. eigenvalues --    2.35386   2.37730   2.38117   2.39235   2.39354
 Alpha virt. eigenvalues --    2.41022   2.41477   2.42169   2.42198   2.43739
 Alpha virt. eigenvalues --    2.44213   2.46421   2.46642   2.49614   2.51376
 Alpha virt. eigenvalues --    2.51857   2.54238   2.55038   2.56553   2.57394
 Alpha virt. eigenvalues --    2.60188   2.61302   2.61555   2.61873   2.65545
 Alpha virt. eigenvalues --    2.68206   2.69579   2.70888   2.71412   2.72334
 Alpha virt. eigenvalues --    2.72994   2.74596   2.77981   2.78494   2.79989
 Alpha virt. eigenvalues --    2.80829   2.81345   2.83632   2.87106   2.87349
 Alpha virt. eigenvalues --    2.89438   2.89614   2.92890   2.93055   2.95090
 Alpha virt. eigenvalues --    2.96801   2.97568   2.98837   3.00328   3.01347
 Alpha virt. eigenvalues --    3.02106   3.04214   3.04739   3.07324   3.07465
 Alpha virt. eigenvalues --    3.08187   3.11054   3.11653   3.12172   3.13295
 Alpha virt. eigenvalues --    3.14622   3.15313   3.16764   3.16913   3.18713
 Alpha virt. eigenvalues --    3.19020   3.21487   3.22421   3.22438   3.23751
 Alpha virt. eigenvalues --    3.25059   3.25963   3.26396   3.28511   3.28539
 Alpha virt. eigenvalues --    3.31705   3.32353   3.34821   3.36524   3.40989
 Alpha virt. eigenvalues --    3.41273   3.41434   3.42352   3.44409   3.44477
 Alpha virt. eigenvalues --    3.45161   3.48767   3.49141   3.50851   3.50930
 Alpha virt. eigenvalues --    3.53131   3.53164   3.54529   3.56294   3.57328
 Alpha virt. eigenvalues --    3.59200   3.60735   3.62408   3.62551   3.64912
 Alpha virt. eigenvalues --    3.66558   3.66795   3.68870   3.69088   3.72395
 Alpha virt. eigenvalues --    3.73199   3.75011   3.75750   3.77449   3.78638
 Alpha virt. eigenvalues --    3.80867   3.81949   3.82977   3.85623   3.86007
 Alpha virt. eigenvalues --    3.86114   3.87216   3.88073   3.90012   3.90689
 Alpha virt. eigenvalues --    3.93278   3.94564   3.95794   3.96584   3.97129
 Alpha virt. eigenvalues --    3.98468   3.98783   3.99852   4.01774   4.02917
 Alpha virt. eigenvalues --    4.04808   4.05616   4.08264   4.09962   4.10806
 Alpha virt. eigenvalues --    4.12810   4.14360   4.17265   4.19149   4.20014
 Alpha virt. eigenvalues --    4.20770   4.21448   4.21993   4.24737   4.26577
 Alpha virt. eigenvalues --    4.26861   4.31134   4.31491   4.31812   4.34867
 Alpha virt. eigenvalues --    4.35755   4.38675   4.40058   4.42466   4.44475
 Alpha virt. eigenvalues --    4.44818   4.48015   4.50445   4.53416   4.55545
 Alpha virt. eigenvalues --    4.55902   4.57484   4.58518   4.59081   4.63112
 Alpha virt. eigenvalues --    4.63330   4.64130   4.64985   4.67509   4.70147
 Alpha virt. eigenvalues --    4.70747   4.71030   4.72448   4.75339   4.76987
 Alpha virt. eigenvalues --    4.78670   4.80270   4.80964   4.81554   4.87291
 Alpha virt. eigenvalues --    4.87600   4.90771   4.91029   4.93144   4.95190
 Alpha virt. eigenvalues --    4.95931   4.96602   4.98487   5.02154   5.03531
 Alpha virt. eigenvalues --    5.06030   5.07177   5.10624   5.11894   5.16708
 Alpha virt. eigenvalues --    5.17180   5.20050   5.21695   5.26925   5.29294
 Alpha virt. eigenvalues --    5.34453   5.35412   5.36232   5.36523   5.38895
 Alpha virt. eigenvalues --    5.42943   5.46589   5.51806   5.54315   5.55830
 Alpha virt. eigenvalues --    5.61217   5.65931   5.77290   5.81302   5.85647
 Alpha virt. eigenvalues --    5.86593   5.92744   5.95702   6.03985   6.06217
 Alpha virt. eigenvalues --    6.07753   6.15728   6.16716   6.21746   6.22766
 Alpha virt. eigenvalues --    6.22822   6.23820   6.28543   6.31680   6.32306
 Alpha virt. eigenvalues --    6.34039   6.35335   6.35531   6.37963   6.39908
 Alpha virt. eigenvalues --    6.40481   6.42085   6.47133   6.50015   6.53084
 Alpha virt. eigenvalues --    6.55247   6.56324   6.58992   6.65037   6.65319
 Alpha virt. eigenvalues --    6.66284   6.66328   6.70370   6.74408   6.77245
 Alpha virt. eigenvalues --    6.77976   6.81052   6.81778   6.83660   6.83797
 Alpha virt. eigenvalues --    6.85889   6.86202   6.89042   6.89846   6.96906
 Alpha virt. eigenvalues --    7.05402   7.05919   7.06766   7.08807   7.10676
 Alpha virt. eigenvalues --    7.12818   7.17941   7.31526   7.35379   7.37579
 Alpha virt. eigenvalues --    7.41651   7.45453   7.50891   7.55578   7.70313
 Alpha virt. eigenvalues --    7.88031   7.89107   7.90556   8.04380  13.99355
 Alpha virt. eigenvalues --   15.12522  15.47091  15.96226  17.24080  17.76868
 Alpha virt. eigenvalues --   18.31911  18.67542  19.93178  20.54825  20.87917
 Alpha virt. eigenvalues --   21.65009
          Condensed to atoms (all electrons):
               1          2          3          4          5          6
     1  C    8.898052  -0.480835   0.338667  -0.828722   0.544630  -1.421385
     2  C   -0.480835   7.611140  -0.795902   0.327221  -0.526016   0.166898
     3  C    0.338667  -0.795902   7.835711  -0.467718   0.199656  -0.630492
     4  C   -0.828722   0.327221  -0.467718   7.671657  -0.804476   0.429739
     5  C    0.544630  -0.526016   0.199656  -0.804476   8.919227  -0.838059
     6  C   -1.421385   0.166898  -0.630492   0.429739  -0.838059   8.113445
     7  C   -0.548293   0.056366   0.083636   0.269066  -0.941573  -0.742124
     8  O    0.118010  -0.052789   0.012445  -0.034678   0.036420  -0.257608
     9  O   -0.001997  -0.004267   0.004680  -0.009559  -0.055217   0.079101
    10  N    0.113428   0.144349  -0.463213  -0.472323  -0.226965  -0.015170
    11  O    0.004635  -0.019624   0.008943   0.061177   0.010028  -0.031949
    12  O    0.009041  -0.081072   0.078399   0.057435  -0.005661  -0.001795
    13  H    0.678796  -0.449431   0.160900  -0.091250   0.082682  -0.604848
    14  H   -0.610743   0.842672  -0.434840   0.166925  -0.093505   0.187043
    15  H    0.199825  -0.461012   0.316474  -0.522674   0.133604  -0.068905
    16  H   -0.034894  -0.035811  -0.013809  -0.436349   0.157800  -0.387209
    17  H   -0.019011   0.002453  -0.001280   0.003813  -0.007111  -0.001712
               7          8          9         10         11         12
     1  C   -0.548293   0.118010  -0.001997   0.113428   0.004635   0.009041
     2  C    0.056366  -0.052789  -0.004267   0.144349  -0.019624  -0.081072
     3  C    0.083636   0.012445   0.004680  -0.463213   0.008943   0.078399
     4  C    0.269066  -0.034678  -0.009559  -0.472323   0.061177   0.057435
     5  C   -0.941573   0.036420  -0.055217  -0.226965   0.010028  -0.005661
     6  C   -0.742124  -0.257608   0.079101  -0.015170  -0.031949  -0.001795
     7  C    7.649792  -0.049572  -0.020909  -0.031855   0.002030   0.002122
     8  O   -0.049572   9.329786  -0.123436   0.000692   0.000576   0.000051
     9  O   -0.020909  -0.123436   8.627431  -0.002147   0.000307  -0.000103
    10  N   -0.031855   0.000692  -0.002147   7.423994   0.036585   0.037065
    11  O    0.002030   0.000576   0.000307   0.036585   8.759694  -0.207352
    12  O    0.002122   0.000051  -0.000103   0.037065  -0.207352   8.756760
    13  H    0.133579   0.028420   0.006185   0.004708  -0.000424   0.000535
    14  H    0.005070  -0.008663  -0.000715  -0.023377   0.001027  -0.001468
    15  H   -0.010794   0.001567   0.000337   0.161960  -0.011770  -0.040809
    16  H   -0.062462  -0.000584  -0.066149   0.047670  -0.026192  -0.006705
    17  H    0.075737  -0.095319   0.158354  -0.000169   0.000117   0.000067
              13         14         15         16         17
     1  C    0.678796  -0.610743   0.199825  -0.034894  -0.019011
     2  C   -0.449431   0.842672  -0.461012  -0.035811   0.002453
     3  C    0.160900  -0.434840   0.316474  -0.013809  -0.001280
     4  C   -0.091250   0.166925  -0.522674  -0.436349   0.003813
     5  C    0.082682  -0.093505   0.133604   0.157800  -0.007111
     6  C   -0.604848   0.187043  -0.068905  -0.387209  -0.001712
     7  C    0.133579   0.005070  -0.010794  -0.062462   0.075737
     8  O    0.028420  -0.008663   0.001567  -0.000584  -0.095319
     9  O    0.006185  -0.000715   0.000337  -0.066149   0.158354
    10  N    0.004708  -0.023377   0.161960   0.047670  -0.000169
    11  O   -0.000424   0.001027  -0.011770  -0.026192   0.000117
    12  O    0.000535  -0.001468  -0.040809  -0.006705   0.000067
    13  H    0.999261  -0.112460   0.008109  -0.021450  -0.002630
    14  H   -0.112460   0.988741  -0.141537  -0.000468   0.000284
    15  H    0.008109  -0.141537   0.976879   0.006362  -0.000204
    16  H   -0.021450  -0.000468   0.006362   1.437575  -0.002573
    17  H   -0.002630   0.000284  -0.000204  -0.002573   0.600259
 Mulliken charges:
               1
     1  C   -0.959203
     2  C   -0.244337
     3  C   -0.232257
     4  C    0.680716
     5  C   -0.585465
     6  C    2.025031
     7  C    0.130186
     8  O   -0.905316
     9  O   -0.591895
    10  N    0.264768
    11  O   -0.587808
    12  O   -0.596510
    13  H    0.179319
    14  H    0.236014
    15  H    0.452588
    16  H    0.445246
    17  H    0.288924
 Sum of Mulliken charges =   0.00000
 Mulliken charges with hydrogens summed into heavy atoms:
               1
     1  C   -0.779884
     2  C   -0.008323
     3  C    0.220330
     4  C    0.680716
     5  C   -0.140218
     6  C    2.025031
     7  C    0.130186
     8  O   -0.905316
     9  O   -0.302971
    10  N    0.264768
    11  O   -0.587808
    12  O   -0.596510
 Electronic spatial extent (au):  <R**2>=           2085.4372
 Charge=              0.0000 electrons
 Dipole moment (field-independent basis, Debye):
    X=             -2.7362    Y=              3.1110    Z=              0.0221  Tot=              4.1431
 Quadrupole moment (field-independent basis, Debye-Ang):
   XX=            -85.8774   YY=            -61.6976   ZZ=            -67.1152
   XY=             11.5530   XZ=             -0.1253   YZ=             -0.0842
 Traceless Quadrupole moment (field-independent basis, Debye-Ang):
   XX=            -14.3139   YY=              9.8658   ZZ=              4.4482
   XY=             11.5530   XZ=             -0.1253   YZ=             -0.0842
 Octapole moment (field-independent basis, Debye-Ang**2):
  XXX=            -38.1081  YYY=             15.0133  ZZZ=              0.0388  XYY=            -20.5962
  XXY=            -13.4425  XXZ=              0.3294  XZZ=              0.8877  YZZ=             -7.1027
  YYZ=              0.2146  XYZ=              0.3143
 Hexadecapole moment (field-independent basis, Debye-Ang**3):
 XXXX=          -2065.9997 YYYY=           -642.4784 ZZZZ=            -64.6243 XXXY=            161.2048
 XXXZ=             -1.6877 YYYX=             49.4038 YYYZ=             -0.3810 ZZZX=             -0.0527
 ZZZY=             -0.0302 XXYY=           -370.3518 XXZZ=           -305.3699 YYZZ=           -136.2960
 XXYZ=             -1.1181 YYXZ=             -0.6460 ZZXY=             -0.6562
 N-N= 6.764724714414D+02 E-N=-2.816200881596D+03  KE= 6.231209876064D+02
 ******************************Gaussian NBO Version 3.1******************************
             N A T U R A L   A T O M I C   O R B I T A L   A N D
          N A T U R A L   B O N D   O R B I T A L   A N A L Y S I S
 ******************************Gaussian NBO Version 3.1******************************
       /RESON  / : Allow strongly delocalized NBO set

 Analyzing the SCF density

 Job title: 3-NO2_benzoic-acid                                              

 Storage needed:   1337455 in NPA,   1781892 in NBO (********** available)
 GSVD:  LWork=       62959 too small for GESVD, short by      696986 words or      696986 for optimal perf.
 Remove ICRem=  192 ICRemI=  193 L=1 PNAO number  200 atom    5 type 153 NPNAO=  667
   due to symmetric orthogonalization 2, value= 0.00D+00.
 Remove ICRem=  192 ICRemI=  193 L=1 PNAO number  196 atom    5 type 152 NPNAO=  666
   due to symmetric orthogonalization 2, value= 0.00D+00.
 Remove ICRem=  192 ICRemI=  193 L=1 PNAO number  192 atom    5 type 151 NPNAO=  665
   due to symmetric orthogonalization 2, value= 0.00D+00.
 GSVD:  LWork=       68185 too small for GESVD, short by      681335 words or      681335 for optimal perf.

 Computed number of electrons   85.99995162 does not match expected value of    86.


 NATURAL POPULATIONS:  Natural atomic orbital occupancies 
                                                          
   NAO  Atom  No  lang   Type(AO)    Occupancy      Energy
 ----------------------------------------------------------
     1    C    1  S      Cor( 1S)     1.99907     -10.42851
     2    C    1  S      Val( 2S)     0.95042      -0.22545
     3    C    1  S      Ryd( 3S)     0.00130       1.99978
     4    C    1  S      Ryd( 5S)     0.00013       2.52298
     5    C    1  S      Ryd( 4S)     0.00003       2.03600
     6    C    1  px     Val( 2p)     1.15572      -0.12011
     7    C    1  px     Ryd( 4p)     0.00513       1.90232
     8    C    1  px     Ryd( 5p)     0.00008       2.48014
     9    C    1  px     Ryd( 3p)     0.00011       1.18978
    10    C    1  py     Val( 2p)     1.07169      -0.09414
    11    C    1  py     Ryd( 4p)     0.00417       1.80192
    12    C    1  py     Ryd( 5p)     0.00003       2.14238
    13    C    1  py     Ryd( 3p)     0.00006       1.16974
    14    C    1  pz     Val( 2p)     0.86625      -0.15342
    15    C    1  pz     Ryd( 4p)     0.00042       0.98737
    16    C    1  pz     Ryd( 5p)     0.00010       1.47426
    17    C    1  pz     Ryd( 3p)     0.00001       0.72082
    18    C    1  dxy    Ryd( 3d)     0.00180       2.59333
    19    C    1  dxy    Ryd( 5d)     0.00021       4.04901
    20    C    1  dxy    Ryd( 4d)     0.00009       3.25712
    21    C    1  dxz    Ryd( 3d)     0.00045       1.43875
    22    C    1  dxz    Ryd( 5d)     0.00003       3.29711
    23    C    1  dxz    Ryd( 4d)     0.00005       1.47828
    24    C    1  dyz    Ryd( 3d)     0.00072       1.31394
    25    C    1  dyz    Ryd( 5d)     0.00004       3.24060
    26    C    1  dyz    Ryd( 4d)     0.00001       1.49057
    27    C    1  dx2y2  Ryd( 4d)     0.00224       3.93271
    28    C    1  dx2y2  Ryd( 5d)     0.00023       4.44673
    29    C    1  dx2y2  Ryd( 3d)     0.00006       2.01423
    30    C    1  dz2    Ryd( 3d)     0.00102       2.02488
    31    C    1  dz2    Ryd( 4d)     0.00009       4.04583
    32    C    1  dz2    Ryd( 5d)     0.00006       4.16522
    33    C    1  f(0)   Ryd( 4f)     0.00007       1.46594
    34    C    1  f(0)   Ryd( 5f)     0.00009       3.35130
    35    C    1  f(C1)  Ryd( 4f)     0.00045       1.95319
    36    C    1  f(C1)  Ryd( 5f)     0.00017       3.58594
    37    C    1  f(S1)  Ryd( 4f)     0.00041       1.84018
    38    C    1  f(S1)  Ryd( 5f)     0.00019       3.51190
    39    C    1  f(C2)  Ryd( 4f)     0.00009       1.44610
    40    C    1  f(C2)  Ryd( 5f)     0.00002       3.43442
    41    C    1  f(S2)  Ryd( 4f)     0.00019       1.58589
    42    C    1  f(S2)  Ryd( 5f)     0.00004       3.34793
    43    C    1  f(C3)  Ryd( 4f)     0.00100       1.93903
    44    C    1  f(C3)  Ryd( 5f)     0.00020       4.22189
    45    C    1  f(S3)  Ryd( 4f)     0.00051       2.94746
    46    C    1  f(S3)  Ryd( 5f)     0.00015       3.99302
 
    47    C    2  S      Cor( 1S)     1.99913     -10.41874
    48    C    2  S      Val( 2S)     0.95219      -0.23241
    49    C    2  S      Ryd( 3S)     0.00139       1.82292
    50    C    2  S      Ryd( 5S)     0.00006       2.74053
    51    C    2  S      Ryd( 4S)     0.00003       1.99968
    52    C    2  px     Val( 2p)     1.05983      -0.10673
    53    C    2  px     Ryd( 5p)     0.00381       1.68714
    54    C    2  px     Ryd( 4p)     0.00008       1.30988
    55    C    2  px     Ryd( 3p)     0.00002       1.24169
    56    C    2  py     Val( 2p)     1.19042      -0.12900
    57    C    2  py     Ryd( 4p)     0.00465       1.68005
    58    C    2  py     Ryd( 5p)     0.00007       2.00739
    59    C    2  py     Ryd( 3p)     0.00003       1.39650
    60    C    2  pz     Val( 2p)     0.99993      -0.16334
    61    C    2  pz     Ryd( 4p)     0.00053       0.97482
    62    C    2  pz     Ryd( 5p)     0.00002       1.34703
    63    C    2  pz     Ryd( 3p)     0.00004       0.88728
    64    C    2  dxy    Ryd( 4d)     0.00230       3.48061
    65    C    2  dxy    Ryd( 5d)     0.00036       3.48602
    66    C    2  dxy    Ryd( 3d)     0.00005       2.40852
    67    C    2  dxz    Ryd( 3d)     0.00031       1.56282
    68    C    2  dxz    Ryd( 5d)     0.00001       2.59356
    69    C    2  dxz    Ryd( 4d)     0.00002       1.97967
    70    C    2  dyz    Ryd( 3d)     0.00041       1.41951
    71    C    2  dyz    Ryd( 5d)     0.00004       2.67548
    72    C    2  dyz    Ryd( 4d)     0.00005       1.74637
    73    C    2  dx2y2  Ryd( 3d)     0.00186       2.32625
    74    C    2  dx2y2  Ryd( 5d)     0.00014       3.63072
    75    C    2  dx2y2  Ryd( 4d)     0.00006       2.99335
    76    C    2  dz2    Ryd( 3d)     0.00117       1.72969
    77    C    2  dz2    Ryd( 5d)     0.00014       4.04584
    78    C    2  dz2    Ryd( 4d)     0.00008       3.18652
    79    C    2  f(0)   Ryd( 5f)     0.00013       3.46972
    80    C    2  f(0)   Ryd( 4f)     0.00001       2.21326
    81    C    2  f(C1)  Ryd( 5f)     0.00030       3.77454
    82    C    2  f(C1)  Ryd( 4f)     0.00001       2.89683
    83    C    2  f(S1)  Ryd( 5f)     0.00015       3.68031
    84    C    2  f(S1)  Ryd( 4f)     0.00002       2.81469
    85    C    2  f(C2)  Ryd( 5f)     0.00002       3.66960
    86    C    2  f(C2)  Ryd( 4f)     0.00001       2.33549
    87    C    2  f(S2)  Ryd( 5f)     0.00001       3.57022
    88    C    2  f(S2)  Ryd( 4f)     0.00001       2.47432
    89    C    2  f(C3)  Ryd( 5f)     0.00013       4.42653
    90    C    2  f(C3)  Ryd( 4f)     0.00007       4.07776
    91    C    2  f(S3)  Ryd( 4f)     0.00013       4.18680
    92    C    2  f(S3)  Ryd( 5f)     0.00004       6.04927
 
    93    C    3  S      Cor( 1S)     1.99909     -10.43311
    94    C    3  S      Val( 2S)     0.95528      -0.23233
    95    C    3  S      Ryd( 3S)     0.00129       1.81846
    96    C    3  S      Ryd( 4S)     0.00012       2.40857
    97    C    3  S      Ryd( 5S)     0.00004       2.74683
    98    C    3  px     Val( 2p)     1.17705      -0.12973
    99    C    3  px     Ryd( 4p)     0.00441       1.91399
   100    C    3  px     Ryd( 5p)     0.00007       2.99368
   101    C    3  px     Ryd( 3p)     0.00008       1.01634
   102    C    3  py     Val( 2p)     1.04430      -0.09024
   103    C    3  py     Ryd( 4p)     0.00375       1.80430
   104    C    3  py     Ryd( 5p)     0.00004       2.62929
   105    C    3  py     Ryd( 3p)     0.00005       0.99825
   106    C    3  pz     Val( 2p)     0.88398      -0.15904
   107    C    3  pz     Ryd( 4p)     0.00061       1.02444
   108    C    3  pz     Ryd( 5p)     0.00008       1.70248
   109    C    3  pz     Ryd( 3p)     0.00001       0.56422
   110    C    3  dxy    Ryd( 3d)     0.00169       2.68655
   111    C    3  dxy    Ryd( 5d)     0.00014       3.64777
   112    C    3  dxy    Ryd( 4d)     0.00010       3.62242
   113    C    3  dxz    Ryd( 3d)     0.00058       1.43650
   114    C    3  dxz    Ryd( 5d)     0.00007       2.91480
   115    C    3  dxz    Ryd( 4d)     0.00002       1.99914
   116    C    3  dyz    Ryd( 3d)     0.00088       1.43417
   117    C    3  dyz    Ryd( 5d)     0.00003       2.95574
   118    C    3  dyz    Ryd( 4d)     0.00004       2.02162
   119    C    3  dx2y2  Ryd( 4d)     0.00191       3.29290
   120    C    3  dx2y2  Ryd( 5d)     0.00017       3.82448
   121    C    3  dx2y2  Ryd( 3d)     0.00005       3.23912
   122    C    3  dz2    Ryd( 3d)     0.00103       1.85683
   123    C    3  dz2    Ryd( 4d)     0.00012       4.15185
   124    C    3  dz2    Ryd( 5d)     0.00005       4.34799
   125    C    3  f(0)   Ryd( 4f)     0.00011       1.64981
   126    C    3  f(0)   Ryd( 5f)     0.00009       3.18493
   127    C    3  f(C1)  Ryd( 4f)     0.00044       2.09120
   128    C    3  f(C1)  Ryd( 5f)     0.00014       3.41932
   129    C    3  f(S1)  Ryd( 4f)     0.00037       2.01118
   130    C    3  f(S1)  Ryd( 5f)     0.00018       3.34178
   131    C    3  f(C2)  Ryd( 4f)     0.00010       1.62747
   132    C    3  f(C2)  Ryd( 5f)     0.00005       3.25876
   133    C    3  f(S2)  Ryd( 4f)     0.00017       1.81944
   134    C    3  f(S2)  Ryd( 5f)     0.00006       3.17504
   135    C    3  f(C3)  Ryd( 4f)     0.00067       2.25399
   136    C    3  f(C3)  Ryd( 5f)     0.00028       4.06276
   137    C    3  f(S3)  Ryd( 4f)     0.00050       3.01554
   138    C    3  f(S3)  Ryd( 5f)     0.00009       3.80642
 
   139    C    4  S      Cor( 1S)     1.99879     -10.44150
   140    C    4  S      Val( 2S)     0.82762      -0.11166
   141    C    4  S      Ryd( 3S)     0.00130       2.04848
   142    C    4  S      Ryd( 4S)     0.00014       2.39294
   143    C    4  S      Ryd( 5S)     0.00003       2.56312
   144    C    4  px     Val( 2p)     1.01770      -0.13572
   145    C    4  px     Ryd( 4p)     0.00504       1.91997
   146    C    4  px     Ryd( 3p)     0.00013       0.91409
   147    C    4  px     Ryd( 5p)     0.00007       2.05033
   148    C    4  py     Val( 2p)     1.09679      -0.15402
   149    C    4  py     Ryd( 4p)     0.00603       1.91419
   150    C    4  py     Ryd( 3p)     0.00016       1.42473
   151    C    4  py     Ryd( 5p)     0.00004       2.00731
   152    C    4  pz     Val( 2p)     1.07807      -0.18695
   153    C    4  pz     Ryd( 3p)     0.00184       0.88911
   154    C    4  pz     Ryd( 4p)     0.00039       1.09671
   155    C    4  pz     Ryd( 5p)     0.00009       1.66233
   156    C    4  dxy    Ryd( 3d)     0.00145       1.57464
   157    C    4  dxy    Ryd( 4d)     0.00059       4.71360
   158    C    4  dxy    Ryd( 5d)     0.00004       5.25014
   159    C    4  dxz    Ryd( 3d)     0.00066       0.67893
   160    C    4  dxz    Ryd( 5d)     0.00026       3.54374
   161    C    4  dxz    Ryd( 4d)     0.00005       2.79576
   162    C    4  dyz    Ryd( 3d)     0.00088       0.73211
   163    C    4  dyz    Ryd( 5d)     0.00022       3.41947
   164    C    4  dyz    Ryd( 4d)     0.00003       2.79108
   165    C    4  dx2y2  Ryd( 3d)     0.00107       1.90680
   166    C    4  dx2y2  Ryd( 4d)     0.00042       4.39899
   167    C    4  dx2y2  Ryd( 5d)     0.00003       5.32253
   168    C    4  dz2    Ryd( 3d)     0.00116       0.78188
   169    C    4  dz2    Ryd( 5d)     0.00021       5.04691
   170    C    4  dz2    Ryd( 4d)     0.00003       3.91530
   171    C    4  f(0)   Ryd( 4f)     0.00009       1.62318
   172    C    4  f(0)   Ryd( 5f)     0.00036       3.47696
   173    C    4  f(C1)  Ryd( 4f)     0.00063       2.24553
   174    C    4  f(C1)  Ryd( 5f)     0.00040       3.71600
   175    C    4  f(S1)  Ryd( 4f)     0.00068       2.19145
   176    C    4  f(S1)  Ryd( 5f)     0.00044       3.63818
   177    C    4  f(C2)  Ryd( 4f)     0.00045       1.61014
   178    C    4  f(C2)  Ryd( 5f)     0.00002       3.27279
   179    C    4  f(S2)  Ryd( 4f)     0.00055       1.54259
   180    C    4  f(S2)  Ryd( 5f)     0.00002       3.36895
   181    C    4  f(C3)  Ryd( 4f)     0.00255       2.69681
   182    C    4  f(C3)  Ryd( 5f)     0.00018       4.35111
   183    C    4  f(S3)  Ryd( 4f)     0.00093       4.00870
   184    C    4  f(S3)  Ryd( 5f)     0.00011       4.83579
 
   185    C    5  S      Cor( 1S)     1.99909     -10.43134
   186    C    5  S      Val( 2S)     0.94659      -0.21196
   187    C    5  S      Ryd( 3S)     0.00073       1.89812
   188    C    5  S      Ryd( 4S)     0.00016       2.36375
   189    C    5  S      Ryd( 5S)     0.00004       2.47684
   190    C    5  px     Val( 2p)     0.99593      -0.08404
   191    C    5  px     Ryd( 3p)     0.00158       1.97188
   192    C    5  px     Ryd( 4p)     0.00005       3.15086
   193    C    5  py     Val( 2p)     1.18731      -0.12806
   194    C    5  py     Ryd( 3p)     0.00319       1.71488
   195    C    5  py     Ryd( 4p)     0.00008       2.27251
   196    C    5  pz     Val( 2p)     0.86076      -0.15879
   197    C    5  pz     Ryd( 3p)     0.00092       1.02054
   198    C    5  pz     Ryd( 4p)     0.00008       1.46337
   199    C    5  dxy    Ryd( 3d)     0.00151       3.19618
   200    C    5  dxy    Ryd( 4d)     0.00031       3.96269
   201    C    5  dxy    Ryd( 5d)     0.00005       4.61132
   202    C    5  dxz    Ryd( 3d)     0.00066       1.41820
   203    C    5  dxz    Ryd( 5d)     0.00006       3.17703
   204    C    5  dxz    Ryd( 4d)     0.00002       2.55833
   205    C    5  dyz    Ryd( 3d)     0.00180       1.07362
   206    C    5  dyz    Ryd( 5d)     0.00006       3.14839
   207    C    5  dyz    Ryd( 4d)     0.00004       2.43018
   208    C    5  dx2y2  Ryd( 3d)     0.00109       2.06538
   209    C    5  dx2y2  Ryd( 4d)     0.00012       3.92482
   210    C    5  dx2y2  Ryd( 5d)     0.00005       5.29680
   211    C    5  dz2    Ryd( 3d)     0.00099       1.43103
   212    C    5  dz2    Ryd( 4d)     0.00018       4.02269
   213    C    5  dz2    Ryd( 5d)     0.00006       4.49046
   214    C    5  f(0)   Ryd( 4f)     0.00036       1.47198
   215    C    5  f(0)   Ryd( 5f)     0.00007       3.42982
   216    C    5  f(C1)  Ryd( 4f)     0.00043       2.17755
   217    C    5  f(C1)  Ryd( 5f)     0.00018       3.73280
   218    C    5  f(S1)  Ryd( 4f)     0.00119       1.84859
   219    C    5  f(S1)  Ryd( 5f)     0.00010       3.57214
   220    C    5  f(C2)  Ryd( 4f)     0.00039       1.37933
   221    C    5  f(C2)  Ryd( 5f)     0.00001       3.50256
   222    C    5  f(S2)  Ryd( 4f)     0.00051       1.48839
   223    C    5  f(S2)  Ryd( 5f)     0.00004       3.49529
   224    C    5  f(C3)  Ryd( 4f)     0.00123       1.89884
   225    C    5  f(C3)  Ryd( 5f)     0.00022       4.70951
   226    C    5  f(S3)  Ryd( 4f)     0.00045       3.82182
   227    C    5  f(S3)  Ryd( 5f)     0.00015       4.16549
 
   228    C    6  S      Cor( 1S)     1.99888     -10.40746
   229    C    6  S      Val( 2S)     0.89192      -0.15470
   230    C    6  S      Ryd( 3S)     0.00173       1.94064
   231    C    6  S      Ryd( 4S)     0.00012       2.15518
   232    C    6  S      Ryd( 5S)     0.00004       4.14734
   233    C    6  px     Val( 2p)     1.11117      -0.14525
   234    C    6  px     Ryd( 4p)     0.00577       2.35148
   235    C    6  px     Ryd( 3p)     0.00012       0.99068
   236    C    6  px     Ryd( 5p)     0.00007       2.46553
   237    C    6  py     Val( 2p)     1.13894      -0.14795
   238    C    6  py     Ryd( 4p)     0.00578       2.05068
   239    C    6  py     Ryd( 3p)     0.00020       1.20782
   240    C    6  py     Ryd( 5p)     0.00006       2.46869
   241    C    6  pz     Val( 2p)     1.07519      -0.17477
   242    C    6  pz     Ryd( 3p)     0.00108       0.89977
   243    C    6  pz     Ryd( 4p)     0.00032       1.06182
   244    C    6  pz     Ryd( 5p)     0.00009       1.84916
   245    C    6  dxy    Ryd( 3d)     0.00179       3.15516
   246    C    6  dxy    Ryd( 4d)     0.00024       3.57035
   247    C    6  dxy    Ryd( 5d)     0.00004       5.75380
   248    C    6  dxz    Ryd( 3d)     0.00039       1.37036
   249    C    6  dxz    Ryd( 5d)     0.00030       2.84414
   250    C    6  dxz    Ryd( 4d)     0.00005       2.43119
   251    C    6  dyz    Ryd( 3d)     0.00013       1.45149
   252    C    6  dyz    Ryd( 5d)     0.00007       2.75079
   253    C    6  dyz    Ryd( 4d)     0.00001       2.63368
   254    C    6  dx2y2  Ryd( 3d)     0.00097       3.21792
   255    C    6  dx2y2  Ryd( 4d)     0.00023       3.56667
   256    C    6  dx2y2  Ryd( 5d)     0.00008       5.71186
   257    C    6  dz2    Ryd( 3d)     0.00080       1.64169
   258    C    6  dz2    Ryd( 5d)     0.00022       4.07349
   259    C    6  dz2    Ryd( 4d)     0.00004       3.87032
   260    C    6  f(0)   Ryd( 4f)     0.00032       1.55523
   261    C    6  f(0)   Ryd( 5f)     0.00023       3.41848
   262    C    6  f(C1)  Ryd( 4f)     0.00066       2.01085
   263    C    6  f(C1)  Ryd( 5f)     0.00039       3.61229
   264    C    6  f(S1)  Ryd( 4f)     0.00083       1.96652
   265    C    6  f(S1)  Ryd( 5f)     0.00035       3.59763
   266    C    6  f(C2)  Ryd( 4f)     0.00056       1.45676
   267    C    6  f(C2)  Ryd( 5f)     0.00003       3.41683
   268    C    6  f(S2)  Ryd( 4f)     0.00082       1.55194
   269    C    6  f(S2)  Ryd( 5f)     0.00004       3.37568
   270    C    6  f(C3)  Ryd( 4f)     0.00241       2.53745
   271    C    6  f(C3)  Ryd( 5f)     0.00029       4.20211
   272    C    6  f(S3)  Ryd( 4f)     0.00123       3.27233
   273    C    6  f(S3)  Ryd( 5f)     0.00011       4.72864
 
   274    C    7  S      Cor( 1S)     1.99908     -10.55734
   275    C    7  S      Val( 2S)     0.77787      -0.12126
   276    C    7  S      Ryd( 4S)     0.00377       2.01256
   277    C    7  S      Ryd( 3S)     0.00016       1.95274
   278    C    7  S      Ryd( 5S)     0.00007       2.70504
   279    C    7  px     Val( 2p)     0.88849      -0.05534
   280    C    7  px     Ryd( 5p)     0.01073       1.56938
   281    C    7  px     Ryd( 3p)     0.00023       1.08577
   282    C    7  px     Ryd( 4p)     0.00003       1.51950
   283    C    7  py     Val( 2p)     0.75611      -0.06050
   284    C    7  py     Ryd( 4p)     0.00805       1.62637
   285    C    7  py     Ryd( 3p)     0.00015       1.25834
   286    C    7  py     Ryd( 5p)     0.00005       1.78522
   287    C    7  pz     Val( 2p)     0.75888      -0.14747
   288    C    7  pz     Ryd( 5p)     0.00057       1.11631
   289    C    7  pz     Ryd( 3p)     0.00010       0.72319
   290    C    7  pz     Ryd( 4p)     0.00007       1.02042
   291    C    7  dxy    Ryd( 4d)     0.00142       3.10292
   292    C    7  dxy    Ryd( 3d)     0.00022       2.82318
   293    C    7  dxy    Ryd( 5d)     0.00007       3.66778
   294    C    7  dxz    Ryd( 4d)     0.00150       2.26108
   295    C    7  dxz    Ryd( 3d)     0.00008       2.21282
   296    C    7  dxz    Ryd( 5d)     0.00006       2.41509
   297    C    7  dyz    Ryd( 3d)     0.00177       2.19578
   298    C    7  dyz    Ryd( 4d)     0.00001       2.19703
   299    C    7  dyz    Ryd( 5d)     0.00003       2.42265
   300    C    7  dx2y2  Ryd( 4d)     0.00134       3.11595
   301    C    7  dx2y2  Ryd( 3d)     0.00038       2.97450
   302    C    7  dx2y2  Ryd( 5d)     0.00004       3.52744
   303    C    7  dz2    Ryd( 3d)     0.00042       3.02179
   304    C    7  dz2    Ryd( 4d)     0.00051       3.22131
   305    C    7  dz2    Ryd( 5d)     0.00013       3.58146
   306    C    7  f(0)   Ryd( 5f)     0.00010       3.52425
   307    C    7  f(0)   Ryd( 4f)     0.00002       2.42197
   308    C    7  f(C1)  Ryd( 5f)     0.00015       3.74371
   309    C    7  f(C1)  Ryd( 4f)     0.00003       3.44127
   310    C    7  f(S1)  Ryd( 5f)     0.00009       3.67978
   311    C    7  f(S1)  Ryd( 4f)     0.00003       3.20080
   312    C    7  f(C2)  Ryd( 5f)     0.00003       3.56964
   313    C    7  f(C2)  Ryd( 4f)     0.00002       2.82922
   314    C    7  f(S2)  Ryd( 5f)     0.00000       3.48672
   315    C    7  f(S2)  Ryd( 4f)     0.00005       2.60679
   316    C    7  f(C3)  Ryd( 5f)     0.00007       4.60781
   317    C    7  f(C3)  Ryd( 4f)     0.00004       3.94720
   318    C    7  f(S3)  Ryd( 4f)     0.00007       4.63962
   319    C    7  f(S3)  Ryd( 5f)     0.00003       8.42427
 
   320    O    8  S      Cor( 1S)     1.99979     -19.34477
   321    O    8  S      Val( 2S)     1.70601      -1.02062
   322    O    8  S      Ryd( 4S)     0.00049       2.82612
   323    O    8  S      Ryd( 3S)     0.00019       1.77600
   324    O    8  S      Ryd( 5S)     0.00001       8.60067
   325    O    8  px     Val( 2p)     1.59848      -0.35165
   326    O    8  px     Ryd( 4p)     0.00056       1.59213
   327    O    8  px     Ryd( 3p)     0.00014       1.32918
   328    O    8  px     Ryd( 5p)     0.00005       4.60536
   329    O    8  py     Val( 2p)     1.81807      -0.36357
   330    O    8  py     Ryd( 4p)     0.00178       1.26564
   331    O    8  py     Ryd( 3p)     0.00006       1.15900
   332    O    8  py     Ryd( 5p)     0.00002       4.26993
   333    O    8  pz     Val( 2p)     1.44552      -0.30764
   334    O    8  pz     Ryd( 4p)     0.00050       1.05855
   335    O    8  pz     Ryd( 3p)     0.00001       0.89635
   336    O    8  pz     Ryd( 5p)     0.00001       3.74651
   337    O    8  dxy    Ryd( 3d)     0.00715       1.94390
   338    O    8  dxy    Ryd( 4d)     0.00009       2.66686
   339    O    8  dxy    Ryd( 5d)     0.00002       6.71581
   340    O    8  dxz    Ryd( 3d)     0.00539       1.54662
   341    O    8  dxz    Ryd( 4d)     0.00002       1.56121
   342    O    8  dxz    Ryd( 5d)     0.00002       6.54523
   343    O    8  dyz    Ryd( 3d)     0.00136       1.44909
   344    O    8  dyz    Ryd( 4d)     0.00003       1.49512
   345    O    8  dyz    Ryd( 5d)     0.00001       6.53667
   346    O    8  dx2y2  Ryd( 3d)     0.00628       1.95011
   347    O    8  dx2y2  Ryd( 4d)     0.00007       2.38953
   348    O    8  dx2y2  Ryd( 5d)     0.00005       6.68470
   349    O    8  dz2    Ryd( 3d)     0.00278       1.64613
   350    O    8  dz2    Ryd( 4d)     0.00008       2.39082
   351    O    8  dz2    Ryd( 5d)     0.00000       6.63292
   352    O    8  f(0)   Ryd( 4f)     0.00012       3.20389
   353    O    8  f(0)   Ryd( 5f)     0.00000       5.40007
   354    O    8  f(C1)  Ryd( 4f)     0.00013       3.77566
   355    O    8  f(C1)  Ryd( 5f)     0.00001       5.69876
   356    O    8  f(S1)  Ryd( 4f)     0.00004       3.29657
   357    O    8  f(S1)  Ryd( 5f)     0.00001       5.52010
   358    O    8  f(C2)  Ryd( 4f)     0.00010       3.17541
   359    O    8  f(C2)  Ryd( 5f)     0.00000       5.59126
   360    O    8  f(S2)  Ryd( 4f)     0.00019       3.23854
   361    O    8  f(S2)  Ryd( 5f)     0.00002       5.54254
   362    O    8  f(C3)  Ryd( 4f)     0.00039       3.68516
   363    O    8  f(C3)  Ryd( 5f)     0.00002       5.85786
   364    O    8  f(S3)  Ryd( 4f)     0.00036       4.11919
   365    O    8  f(S3)  Ryd( 5f)     0.00001       6.01103
 
   366    O    9  S      Cor( 1S)     1.99978     -19.47304
   367    O    9  S      Val( 2S)     1.67787      -1.04884
   368    O    9  S      Ryd( 4S)     0.00035       2.05428
   369    O    9  S      Ryd( 3S)     0.00015       1.65369
   370    O    9  S      Ryd( 5S)     0.00001       9.99478
   371    O    9  px     Val( 2p)     1.63982      -0.40081
   372    O    9  px     Ryd( 3p)     0.00049       1.19292
   373    O    9  px     Ryd( 4p)     0.00008       1.40902
   374    O    9  px     Ryd( 5p)     0.00005       4.61562
   375    O    9  py     Val( 2p)     1.51884      -0.38787
   376    O    9  py     Ryd( 3p)     0.00098       1.12022
   377    O    9  py     Ryd( 4p)     0.00005       1.12763
   378    O    9  py     Ryd( 5p)     0.00005       4.65808
   379    O    9  pz     Val( 2p)     1.84302      -0.42603
   380    O    9  pz     Ryd( 4p)     0.00105       0.88519
   381    O    9  pz     Ryd( 3p)     0.00005       0.81459
   382    O    9  pz     Ryd( 5p)     0.00001       3.83610
   383    O    9  dxy    Ryd( 3d)     0.00269       1.62717
   384    O    9  dxy    Ryd( 4d)     0.00009       2.35081
   385    O    9  dxy    Ryd( 5d)     0.00005       6.54430
   386    O    9  dxz    Ryd( 3d)     0.00206       1.15217
   387    O    9  dxz    Ryd( 4d)     0.00004       1.99922
   388    O    9  dxz    Ryd( 5d)     0.00001       6.28859
   389    O    9  dyz    Ryd( 3d)     0.00275       1.37506
   390    O    9  dyz    Ryd( 4d)     0.00005       1.81333
   391    O    9  dyz    Ryd( 5d)     0.00003       6.36504
   392    O    9  dx2y2  Ryd( 3d)     0.00696       2.13333
   393    O    9  dx2y2  Ryd( 4d)     0.00008       2.38419
   394    O    9  dx2y2  Ryd( 5d)     0.00005       6.87602
   395    O    9  dz2    Ryd( 3d)     0.00301       1.51885
   396    O    9  dz2    Ryd( 4d)     0.00012       2.47967
   397    O    9  dz2    Ryd( 5d)     0.00001       6.57073
   398    O    9  f(0)   Ryd( 4f)     0.00050       2.79913
   399    O    9  f(0)   Ryd( 5f)     0.00001       5.89475
   400    O    9  f(C1)  Ryd( 4f)     0.00015       3.23595
   401    O    9  f(C1)  Ryd( 5f)     0.00001       6.20887
   402    O    9  f(S1)  Ryd( 4f)     0.00020       3.57471
   403    O    9  f(S1)  Ryd( 5f)     0.00001       6.11470
   404    O    9  f(C2)  Ryd( 4f)     0.00001       2.95029
   405    O    9  f(C2)  Ryd( 5f)     0.00001       5.96165
   406    O    9  f(S2)  Ryd( 4f)     0.00009       2.77762
   407    O    9  f(S2)  Ryd( 5f)     0.00000       6.02714
   408    O    9  f(C3)  Ryd( 4f)     0.00009       3.83294
   409    O    9  f(C3)  Ryd( 5f)     0.00002       6.44298
   410    O    9  f(S3)  Ryd( 4f)     0.00009       4.45707
   411    O    9  f(S3)  Ryd( 5f)     0.00005       6.50472
 
   412    N   10  S      Cor( 1S)     1.99898     -14.83103
   413    N   10  S      Val( 2S)     1.11251      -0.59291
   414    N   10  S      Ryd( 4S)     0.00232       1.83007
   415    N   10  S      Ryd( 5S)     0.00018       6.29531
   416    N   10  S      Ryd( 3S)     0.00011       1.79097
   417    N   10  px     Val( 2p)     1.13428      -0.32983
   418    N   10  px     Ryd( 3p)     0.00838       1.53756
   419    N   10  px     Ryd( 4p)     0.00016       2.27271
   420    N   10  px     Ryd( 5p)     0.00006       3.19357
   421    N   10  py     Val( 2p)     1.08283      -0.31922
   422    N   10  py     Ryd( 3p)     0.00935       1.53958
   423    N   10  py     Ryd( 4p)     0.00011       2.26907
   424    N   10  py     Ryd( 5p)     0.00007       3.21153
   425    N   10  pz     Val( 2p)     1.15463      -0.34734
   426    N   10  pz     Ryd( 3p)     0.00168       0.91569
   427    N   10  pz     Ryd( 4p)     0.00008       1.65603
   428    N   10  pz     Ryd( 5p)     0.00011       1.92649
   429    N   10  dxy    Ryd( 4d)     0.00647       2.64209
   430    N   10  dxy    Ryd( 5d)     0.00011       5.47203
   431    N   10  dxy    Ryd( 3d)     0.00002       2.19642
   432    N   10  dxz    Ryd( 4d)     0.00322       1.54254
   433    N   10  dxz    Ryd( 5d)     0.00004       4.75663
   434    N   10  dxz    Ryd( 3d)     0.00010       1.40856
   435    N   10  dyz    Ryd( 4d)     0.00526       1.58511
   436    N   10  dyz    Ryd( 5d)     0.00005       4.79646
   437    N   10  dyz    Ryd( 3d)     0.00005       1.45188
   438    N   10  dx2y2  Ryd( 4d)     0.00312       2.48593
   439    N   10  dx2y2  Ryd( 5d)     0.00032       5.46571
   440    N   10  dx2y2  Ryd( 3d)     0.00003       2.45993
   441    N   10  dz2    Ryd( 3d)     0.00089       2.12499
   442    N   10  dz2    Ryd( 5d)     0.00018       5.53269
   443    N   10  dz2    Ryd( 4d)     0.00008       3.63627
   444    N   10  f(0)   Ryd( 4f)     0.00057       2.42256
   445    N   10  f(0)   Ryd( 5f)     0.00004       4.26563
   446    N   10  f(C1)  Ryd( 4f)     0.00045       2.64937
   447    N   10  f(C1)  Ryd( 5f)     0.00009       4.33334
   448    N   10  f(S1)  Ryd( 4f)     0.00040       2.62659
   449    N   10  f(S1)  Ryd( 5f)     0.00009       4.32613
   450    N   10  f(C2)  Ryd( 4f)     0.00005       2.39083
   451    N   10  f(C2)  Ryd( 5f)     0.00006       4.34820
   452    N   10  f(S2)  Ryd( 4f)     0.00008       2.30206
   453    N   10  f(S2)  Ryd( 5f)     0.00014       4.21682
   454    N   10  f(C3)  Ryd( 4f)     0.00046       2.99545
   455    N   10  f(C3)  Ryd( 5f)     0.00024       5.03981
   456    N   10  f(S3)  Ryd( 4f)     0.00055       3.54170
   457    N   10  f(S3)  Ryd( 5f)     0.00005       5.19156
 
   458    O   11  S      Cor( 1S)     1.99988     -19.49143
   459    O   11  S      Val( 2S)     1.80507      -1.02095
   460    O   11  S      Ryd( 4S)     0.00033       4.35651
   461    O   11  S      Ryd( 3S)     0.00015       1.47999
   462    O   11  S      Ryd( 5S)     0.00001       8.61921
   463    O   11  px     Val( 2p)     1.93253      -0.38276
   464    O   11  px     Ryd( 4p)     0.00104       1.14959
   465    O   11  px     Ryd( 3p)     0.00012       0.78853
   466    O   11  px     Ryd( 5p)     0.00003       4.78750
   467    O   11  py     Val( 2p)     1.15754      -0.25777
   468    O   11  py     Ryd( 4p)     0.00051       1.57720
   469    O   11  py     Ryd( 3p)     0.00004       1.01318
   470    O   11  py     Ryd( 5p)     0.00003       5.55876
   471    O   11  pz     Val( 2p)     1.48782      -0.32374
   472    O   11  pz     Ryd( 4p)     0.00134       0.88530
   473    O   11  pz     Ryd( 3p)     0.00007       0.54041
   474    O   11  pz     Ryd( 5p)     0.00000       4.25927
   475    O   11  dxy    Ryd( 4d)     0.00204       2.13057
   476    O   11  dxy    Ryd( 3d)     0.00006       2.00667
   477    O   11  dxy    Ryd( 5d)     0.00001       6.82928
   478    O   11  dxz    Ryd( 3d)     0.00013       1.52113
   479    O   11  dxz    Ryd( 4d)     0.00001       1.58150
   480    O   11  dxz    Ryd( 5d)     0.00000       6.53256
   481    O   11  dyz    Ryd( 4d)     0.00262       1.87305
   482    O   11  dyz    Ryd( 3d)     0.00002       1.61572
   483    O   11  dyz    Ryd( 5d)     0.00002       6.69679
   484    O   11  dx2y2  Ryd( 3d)     0.00314       2.20788
   485    O   11  dx2y2  Ryd( 4d)     0.00005       2.28672
   486    O   11  dx2y2  Ryd( 5d)     0.00002       6.77710
   487    O   11  dz2    Ryd( 3d)     0.00113       1.81963
   488    O   11  dz2    Ryd( 4d)     0.00002       1.93874
   489    O   11  dz2    Ryd( 5d)     0.00001       6.73163
   490    O   11  f(0)   Ryd( 5f)     0.00001       4.77185
   491    O   11  f(0)   Ryd( 4f)     0.00001       3.99193
   492    O   11  f(C1)  Ryd( 5f)     0.00000       4.73375
   493    O   11  f(C1)  Ryd( 4f)     0.00001       3.91216
   494    O   11  f(S1)  Ryd( 5f)     0.00004       5.22912
   495    O   11  f(S1)  Ryd( 4f)     0.00001       4.93594
   496    O   11  f(C2)  Ryd( 5f)     0.00006       4.80677
   497    O   11  f(C2)  Ryd( 4f)     0.00001       4.14380
   498    O   11  f(S2)  Ryd( 5f)     0.00000       4.63178
   499    O   11  f(S2)  Ryd( 4f)     0.00000       4.31406
   500    O   11  f(C3)  Ryd( 5f)     0.00008       4.97743
   501    O   11  f(C3)  Ryd( 4f)     0.00002       4.76837
   502    O   11  f(S3)  Ryd( 5f)     0.00010       5.18804
   503    O   11  f(S3)  Ryd( 4f)     0.00002       4.94084
 
   504    O   12  S      Cor( 1S)     1.99988     -19.49104
   505    O   12  S      Val( 2S)     1.80230      -1.02131
   506    O   12  S      Ryd( 4S)     0.00039       4.31428
   507    O   12  S      Ryd( 3S)     0.00013       1.50455
   508    O   12  S      Ryd( 5S)     0.00001       8.47564
   509    O   12  px     Val( 2p)     1.27582      -0.27885
   510    O   12  px     Ryd( 4p)     0.00038       1.51191
   511    O   12  px     Ryd( 3p)     0.00003       0.85456
   512    O   12  px     Ryd( 5p)     0.00004       5.45267
   513    O   12  py     Val( 2p)     1.82123      -0.36557
   514    O   12  py     Ryd( 4p)     0.00108       1.22807
   515    O   12  py     Ryd( 3p)     0.00016       0.86092
   516    O   12  py     Ryd( 5p)     0.00002       4.91374
   517    O   12  pz     Val( 2p)     1.48227      -0.32427
   518    O   12  pz     Ryd( 4p)     0.00142       0.87347
   519    O   12  pz     Ryd( 3p)     0.00009       0.51128
   520    O   12  pz     Ryd( 5p)     0.00000       4.27156
   521    O   12  dxy    Ryd( 4d)     0.00295       2.10742
   522    O   12  dxy    Ryd( 3d)     0.00007       2.03530
   523    O   12  dxy    Ryd( 5d)     0.00002       6.76456
   524    O   12  dxz    Ryd( 4d)     0.00260       1.82239
   525    O   12  dxz    Ryd( 3d)     0.00001       1.58937
   526    O   12  dxz    Ryd( 5d)     0.00002       6.66545
   527    O   12  dyz    Ryd( 4d)     0.00017       1.60225
   528    O   12  dyz    Ryd( 3d)     0.00002       1.55691
   529    O   12  dyz    Ryd( 5d)     0.00000       6.56066
   530    O   12  dx2y2  Ryd( 3d)     0.00229       2.21817
   531    O   12  dx2y2  Ryd( 4d)     0.00002       2.22278
   532    O   12  dx2y2  Ryd( 5d)     0.00002       6.82783
   533    O   12  dz2    Ryd( 3d)     0.00110       1.83133
   534    O   12  dz2    Ryd( 4d)     0.00002       1.91356
   535    O   12  dz2    Ryd( 5d)     0.00001       6.71878
   536    O   12  f(0)   Ryd( 5f)     0.00001       4.73690
   537    O   12  f(0)   Ryd( 4f)     0.00001       4.01844
   538    O   12  f(C1)  Ryd( 5f)     0.00004       5.14953
   539    O   12  f(C1)  Ryd( 4f)     0.00001       4.89244
   540    O   12  f(S1)  Ryd( 5f)     0.00001       4.75810
   541    O   12  f(S1)  Ryd( 4f)     0.00001       3.96460
   542    O   12  f(C2)  Ryd( 5f)     0.00003       4.69560
   543    O   12  f(C2)  Ryd( 4f)     0.00001       4.22047
   544    O   12  f(S2)  Ryd( 5f)     0.00003       4.67033
   545    O   12  f(S2)  Ryd( 4f)     0.00001       4.30116
   546    O   12  f(C3)  Ryd( 5f)     0.00007       4.97051
   547    O   12  f(C3)  Ryd( 4f)     0.00002       4.80304
   548    O   12  f(S3)  Ryd( 5f)     0.00012       5.15008
   549    O   12  f(S3)  Ryd( 4f)     0.00002       4.90381
 
   550    H   13  S      Val( 1S)     0.75212       0.02212
   551    H   13  S      Ryd( 4S)     0.00046       1.95191
   552    H   13  S      Ryd( 2S)     0.00015       0.76073
   553    H   13  S      Ryd( 3S)     0.00004       1.66769
   554    H   13  px     Ryd( 2p)     0.00093       0.83604
   555    H   13  px     Ryd( 3p)     0.00019       4.13537
   556    H   13  px     Ryd( 4p)     0.00005       4.25381
   557    H   13  py     Ryd( 2p)     0.00062       0.82969
   558    H   13  py     Ryd( 4p)     0.00009       4.15373
   559    H   13  py     Ryd( 3p)     0.00009       3.57639
   560    H   13  pz     Ryd( 2p)     0.00009       0.54489
   561    H   13  pz     Ryd( 4p)     0.00002       3.95693
   562    H   13  pz     Ryd( 3p)     0.00004       2.16908
   563    H   13  dxy    Ryd( 3d)     0.00008       2.42169
   564    H   13  dxy    Ryd( 4d)     0.00003       4.34261
   565    H   13  dxz    Ryd( 3d)     0.00002       1.80142
   566    H   13  dxz    Ryd( 4d)     0.00001       3.68089
   567    H   13  dyz    Ryd( 3d)     0.00001       1.77497
   568    H   13  dyz    Ryd( 4d)     0.00001       3.56663
   569    H   13  dx2y2  Ryd( 3d)     0.00004       2.11625
   570    H   13  dx2y2  Ryd( 4d)     0.00002       4.33632
   571    H   13  dz2    Ryd( 3d)     0.00004       2.28654
   572    H   13  dz2    Ryd( 4d)     0.00002       4.11539
 
   573    H   14  S      Val( 1S)     0.77023       0.00881
   574    H   14  S      Ryd( 4S)     0.00031       1.92982
   575    H   14  S      Ryd( 2S)     0.00016       0.74795
   576    H   14  S      Ryd( 3S)     0.00002       1.46368
   577    H   14  px     Ryd( 2p)     0.00018       1.31060
   578    H   14  px     Ryd( 3p)     0.00008       2.81914
   579    H   14  px     Ryd( 4p)     0.00004       3.03376
   580    H   14  py     Ryd( 2p)     0.00083       1.33056
   581    H   14  py     Ryd( 4p)     0.00005       5.22202
   582    H   14  py     Ryd( 3p)     0.00007       2.92793
   583    H   14  pz     Ryd( 2p)     0.00006       1.11204
   584    H   14  pz     Ryd( 3p)     0.00012       2.30017
   585    H   14  pz     Ryd( 4p)     0.00004       2.73681
   586    H   14  dxy    Ryd( 3d)     0.00002       1.94108
   587    H   14  dxy    Ryd( 4d)     0.00002       4.50630
   588    H   14  dxz    Ryd( 3d)     0.00000       1.54782
   589    H   14  dxz    Ryd( 4d)     0.00000       3.50164
   590    H   14  dyz    Ryd( 3d)     0.00001       1.73705
   591    H   14  dyz    Ryd( 4d)     0.00001       3.97407
   592    H   14  dx2y2  Ryd( 3d)     0.00014       2.16876
   593    H   14  dx2y2  Ryd( 4d)     0.00003       4.37896
   594    H   14  dz2    Ryd( 3d)     0.00002       1.90313
   595    H   14  dz2    Ryd( 4d)     0.00002       3.78389
 
   596    H   15  S      Val( 1S)     0.74477       0.02066
   597    H   15  S      Ryd( 4S)     0.00055       1.95890
   598    H   15  S      Ryd( 2S)     0.00012       0.79056
   599    H   15  S      Ryd( 3S)     0.00003       1.62659
   600    H   15  px     Ryd( 2p)     0.00113       0.85453
   601    H   15  px     Ryd( 3p)     0.00021       4.11593
   602    H   15  px     Ryd( 4p)     0.00004       4.31019
   603    H   15  py     Ryd( 2p)     0.00066       0.94225
   604    H   15  py     Ryd( 4p)     0.00008       4.12737
   605    H   15  py     Ryd( 3p)     0.00006       3.39161
   606    H   15  pz     Ryd( 2p)     0.00021       0.56631
   607    H   15  pz     Ryd( 4p)     0.00002       3.94756
   608    H   15  pz     Ryd( 3p)     0.00002       2.20469
   609    H   15  dxy    Ryd( 3d)     0.00006       2.33540
   610    H   15  dxy    Ryd( 4d)     0.00003       4.53146
   611    H   15  dxz    Ryd( 3d)     0.00002       1.58268
   612    H   15  dxz    Ryd( 4d)     0.00001       3.97771
   613    H   15  dyz    Ryd( 3d)     0.00002       1.54357
   614    H   15  dyz    Ryd( 4d)     0.00000       3.78643
   615    H   15  dx2y2  Ryd( 3d)     0.00006       1.92021
   616    H   15  dx2y2  Ryd( 4d)     0.00003       4.51809
   617    H   15  dz2    Ryd( 3d)     0.00005       2.13895
   618    H   15  dz2    Ryd( 4d)     0.00002       4.18441
 
   619    H   16  S      Val( 1S)     0.72853       0.03800
   620    H   16  S      Ryd( 3S)     0.00097       1.63706
   621    H   16  S      Ryd( 2S)     0.00022       1.12580
   622    H   16  S      Ryd( 4S)     0.00005       1.91142
   623    H   16  px     Ryd( 2p)     0.00055       1.25189
   624    H   16  px     Ryd( 4p)     0.00010       3.84216
   625    H   16  px     Ryd( 3p)     0.00007       3.14151
   626    H   16  py     Ryd( 2p)     0.00224       0.85840
   627    H   16  py     Ryd( 4p)     0.00026       5.13012
[...]
   zy         0.540219D+01      0.800522D+00      0.890701D+00
   zz         0.129830D+03      0.192388D+02      0.214060D+02

 ----------------------------------------------------------------------
 Unable to Open any file for archive entry.
 1\1\GINC-AE20\Freq\RM062X\Aug-CC-pVTZ\C7H5N1O4\DHUANG\06-Sep-2022\0\\#
 N Geom=AllCheck Guess=TCheck SCRF=Check GenChk RM062X/Aug-CC-pVTZ Freq
 \\3-NO2_benzoic-acid\\0,1\C,-1.9040550777,-0.3494118611,-0.5966487205\
 C,-1.5628579587,-1.172242571,-1.6579243351\C,-0.2304135507,-1.45988863
 47,-1.9129337388\C,0.7334100907,-0.908753111,-1.0879913467\C,0.4248692
 759,-0.0855078886,-0.0229343602\C,-0.9137780053,0.1915825215,0.2173747
 823\C,-1.337465034,1.0693045965,1.3437932497\O,-2.4787582004,1.3416539
 655,1.5947886137\O,-0.301544829,1.5335733127,2.0601815265\N,2.15388823
 24,-1.212842218,-1.356436777\O,2.9780236577,-0.7201184725,-0.621147993
 2\O,2.4004704427,-1.9357370416,-2.2950709192\H,-2.9363182003,-0.112101
 6642,-0.3799399107\H,-2.3325907997,-1.591758129,-2.2892537989\H,0.0712
 291944,-2.0965784637,-2.7306026545\H,1.2086388419,0.3231641507,0.59546
 13154\H,-0.6641480799,2.0891615085,2.7629850673\\Version=ES64L-G16RevC
 .01\State=1-A\HF=-625.3300595\RMSD=2.321e-09\RMSF=7.063e-05\ZeroPoint=
 0.1194629\Thermal=0.1290262\ETot=-625.2010333\HTot=-625.2000891\GTot=-
 625.2468706\Dipole=-1.05052,0.153857,0.1045795\DipoleDeriv=0.0338428,0
 .0476686,0.0712584,-0.0689424,0.0178034,0.0817414,-0.0836528,0.092842,
 0.0668122,-0.0898931,0.146187,0.1980415,0.1446575,-0.1247613,0.0186625
 ,0.1960024,0.018805,-0.0846347,0.1265507,-0.0749377,-0.0837016,0.05597
 15,-0.043414,0.0011654,0.090519,-0.0113763,-0.0467211,-0.2094528,0.049
 0153,0.0425034,0.0252111,-0.007056,-0.0430669,0.0108608,-0.040767,-0.0
 26108,0.0147136,-0.0392951,-0.0489878,-0.0651862,-0.0026296,0.0157831,
 -0.0834049,0.0181542,-0.0030259,-0.1986572,0.0205142,0.0127661,0.06600
 88,-0.1886931,-0.1808416,0.0733734,-0.1852965,-0.2871647,1.6406018,-0.
 0654566,0.038715,-0.1549184,0.9637825,0.8186746,-0.0802935,0.8271047,1
 .4287414,-1.1455838,0.2002763,0.1910839,0.2780723,-0.5979859,-0.283248
 ,0.2937996,-0.2905433,-0.7227433,-0.7738516,-0.2453027,-0.366664,-0.23
 41985,-0.612795,-0.3674517,-0.3514287,-0.3682626,-0.876943,1.7364517,-
 0.1271963,-0.0274493,-0.0833488,0.7958942,0.7041022,0.0308123,0.69979,
 1.1959781,-1.0087691,-0.1777768,-0.3104436,-0.0789965,-0.4326881,-0.26
 16929,-0.1789203,-0.2711872,-0.620133,-0.6940857,0.2422365,0.2793175,0
 .101542,-0.5896026,-0.4490114,0.0920362,-0.4353936,-0.8159595,0.048529
 2,0.0057681,0.0002909,0.0124827,0.122792,-0.0029245,0.0091948,-0.00357
 9,0.1219879,0.0111185,-0.0215149,-0.0403566,-0.0217564,0.0920906,-0.05
 7776,-0.0407085,-0.0577389,0.0533357,0.1312467,0.0053744,0.0067023,0.0
 013968,0.1159121,-0.0263466,0.0013621,-0.0259814,0.1014437,0.1378529,-
 0.0188519,-0.0248546,-0.0112179,0.1380623,0.0018575,-0.0146829,0.00109
 45,0.1359233,0.2393854,0.0532916,0.0617785,0.0332223,0.3532883,0.03037
 3,0.0351311,0.0323357,0.3792109\Polar=125.8837247,-9.7851977,84.577613
 7,-6.4393873,35.2567837,103.6197189\Quadrupole=-8.6512754,3.1379929,5.
 5132825,5.7500967,6.6349276,2.3034464\PG=C01 [X(C7H5N1O4)]\NImag=0\\0.
 74316309,-0.04769573,0.34860812,-0.00640870,0.26284406,0.49630611,-0.1
 4722343,0.00992503,0.00528839,0.71490464,0.05635721,-0.16545793,-0.128
 72005,0.00147649,0.34565791,0.06702388,-0.13315829,-0.23519383,0.05719
 951,0.27710018,0.51118971,0.00888010,0.05773459,0.07712661,-0.32961890
 ,0.02061920,0.00199760,0.68753462,0.02454957,0.00237096,-0.00122271,0.
 06844332,-0.09829446,-0.03921430,-0.04284446,0.36973322,0.03300598,0.0
 0195383,0.01081153,0.06558755,-0.04379209,-0.11582448,-0.00495252,0.29
 655478,0.53740800,-0.00770424,-0.01110247,-0.01499522,-0.05488228,0.00
 355103,-0.00095679,-0.20911370,-0.07955782,-0.11963281,0.58318532,-0.0
 1264610,-0.02955721,-0.03353588,-0.03387277,0.02823164,0.02835816,-0.0
 3400581,-0.12584060,-0.08533172,0.01120244,0.36554392,-0.01705245,-0.0
 3339256,-0.05127099,-0.05071446,0.03194526,0.04208287,-0.05906867,-0.0
 8969188,-0.18900182,0.05695133,0.29606197,0.54282119,-0.05190702,-0.03
 303336,-0.04946004,-0.03835195,0.02518631,0.03013777,0.06184075,-0.005
 37767,-0.00190450,-0.12591661,-0.00032412,-0.00631245,0.72821968,0.000
 04858,0.02970716,0.03153817,0.02670973,-0.01987851,-0.01944432,-0.0406
 4256,-0.01164441,-0.02867248,0.04431046,-0.16517421,-0.12953892,0.0006
 7616,0.35467993,-0.00547250,0.02837578,0.04318981,0.03216317,-0.019588
 74,-0.02629963,-0.04878671,-0.02529994,-0.03130691,0.05303360,-0.13381
 229,-0.23739638,0.05672965,0.27910311,0.52134325,-0.23516563,-0.030106
 97,-0.05613786,0.06261398,-0.03839644,-0.04570251,-0.07217960,-0.00980
 273,-0.01950322,0.00094187,0.05768664,0.07625649,-0.32541027,0.0187291
 7,-0.00003347,0.71999351,-0.07253100,-0.11691573,-0.07356029,-0.005350
 56,-0.01206044,-0.02539455,-0.00696656,-0.00420081,-0.00020739,0.01969
 122,0.00065826,-0.00469060,0.06157371,-0.09518638,-0.03452249,-0.02000
 303,0.33219386,-0.11254196,-0.06950370,-0.16998490,-0.00176156,-0.0285
 5345,-0.03148448,-0.01573694,-0.00048004,-0.00668740,0.02574044,-0.001
 05339,0.00666488,0.05693312,-0.03862390,-0.11071096,0.02833829,0.24511
 384,0.47495618,0.01993263,-0.00877221,-0.00996945,-0.00240784,-0.00478
 006,-0.00732412,-0.00472487,-0.00056876,-0.00109359,-0.00660737,0.0022
 8086,0.00154502,-0.00342427,0.01821198,0.02385611,-0.10245878,0.010172
 67,0.01182736,0.97986480,-0.00354772,-0.01010850,-0.01667049,-0.002411
 15,0.00570719,-0.00286090,-0.00100295,-0.00015647,0.00127899,0.0004338
 3,0.00804348,-0.00113069,0.01053649,-0.00334417,-0.00388010,0.01700285
 ,-0.12765857,-0.05577217,-0.11339679,0.38966762,-0.00300489,-0.0171646
 6,-0.02093131,-0.00417394,-0.00309380,0.00317778,-0.00167516,0.0013223
 9,0.00040663,-0.00090503,-0.00095572,0.00757298,0.01364188,-0.00315663
 ,-0.00254548,0.02089473,-0.05637806,-0.15749514,-0.07676570,0.21868632
 ,0.49986872,-0.00647661,-0.00375592,-0.00562282,0.00047235,0.00109045,
 0.00157257,0.00005922,0.00002740,0.00002669,0.00031776,0.00052407,0.00
 091052,0.00295762,0.00190256,0.00257577,-0.02616660,0.01984560,0.02172
 972,-0.68887811,0.15163576,0.14236447,0.82407480,0.00171965,-0.0001774
 1,-0.00026443,0.00051040,-0.00011567,0.00093359,0.00102693,-0.00017455
 ,-0.00033577,0.00118117,-0.00210229,-0.00020743,-0.00252502,-0.0006779
 3,-0.00440818,0.03112625,0.00609552,-0.01773451,0.14630309,-0.13166685
 ,-0.05446801,-0.16634006,0.09942828,0.00164474,-0.00079592,-0.00075170
 ,0.00079783,0.00099211,0.00061352,0.00135842,-0.00043153,-0.00029214,0
 .00177468,-0.00026810,-0.00205323,-0.00330523,-0.00397644,-0.00314545,
 0.03673862,-0.01884808,0.00022194,0.13525919,-0.05393753,-0.13850647,-
 0.14435711,0.07109980,0.11422838,-0.00045225,0.00097402,0.00113202,0.0
 0109414,0.00033054,0.00058849,0.00066549,0.00002850,0.00009107,0.00126
 041,-0.00105294,-0.00120053,-0.00407861,0.00143972,0.00148515,0.008022
 90,-0.00205549,-0.00308800,-0.20778207,-0.03288108,-0.05738242,-0.1059
 4079,-0.01754252,-0.03642016,0.42653760,0.00417108,-0.00072888,-0.0022
 4761,-0.00034101,-0.00122703,-0.00104554,-0.00058121,-0.00029033,-0.00
 058608,-0.00014443,-0.00054879,0.00036209,-0.00065457,-0.00129886,-0.0
 0227640,-0.01980782,-0.00636366,-0.02606788,-0.04928295,-0.11363676,-0
 .06847720,-0.01063616,0.03199059,0.00188679,-0.04368484,0.26822183,0.0
 0537892,-0.00254971,-0.00161421,-0.00030177,-0.00098105,-0.00179827,-0
 .00071981,-0.00052802,-0.00066221,0.00000670,0.00027481,-0.00046366,-0
 .00129505,-0.00207221,-0.00251679,-0.02668661,-0.02437819,-0.02313355,
 -0.07913378,-0.06688223,-0.16213627,-0.02725914,0.00122095,0.02878162,
 -0.02057190,0.30071627,0.43601347,0.00008681,-0.00108074,-0.00129634,0
 .00310749,-0.00421694,-0.00617568,-0.03959430,0.00060835,-0.00291006,-
 0.13298909,0.00540875,0.00307636,-0.01836370,0.01690041,0.02080178,0.0
 0930384,-0.00062297,-0.00085536,0.00126802,0.00421209,0.00560779,0.000
 82900,-0.00201997,-0.00255180,-0.00186621,-0.00210115,-0.00296511,0.72
 429218,-0.00105714,-0.00262876,-0.00174680,-0.00516904,0.00513164,-0.0
 0569026,-0.00398395,0.00809007,0.01139647,0.00567533,-0.09888846,-0.01
 145477,0.02140976,-0.00214027,0.00038114,0.00113789,0.00284440,-0.0088
 6396,0.00210648,0.00105242,0.00003278,-0.00046300,-0.00044643,0.000092
 28,-0.00068889,-0.00004596,-0.00004389,0.03086595,0.52152395,-0.001267
 36,-0.00175314,-0.00384156,-0.00744573,-0.00559627,0.00088624,-0.00899
 422,0.01183449,0.01410708,0.00341503,-0.01147417,-0.10477877,0.0267823
 5,-0.00004053,0.00161722,0.00149299,-0.00903182,-0.00227714,0.00281085
 ,0.00023534,0.00176167,-0.00048396,-0.00005726,-0.00067212,-0.00108999
 ,-0.00017989,-0.00040549,0.08657232,0.36286519,0.74253392,-0.00076103,
 -0.00072313,-0.00104769,-0.00338304,-0.00005308,-0.00026576,-0.0033513
 8,0.00535346,0.00654593,-0.05557247,-0.01939002,-0.03329111,-0.0027475
 0,-0.00181745,-0.00276911,-0.00074871,0.00017450,0.00023998,-0.0005197
 8,-0.00241762,-0.00325913,-0.00034223,0.00101629,0.00131210,0.00109554
 ,0.00125762,0.00176690,-0.37663068,-0.11883450,-0.18637812,0.40834925,
 0.00067730,0.00042803,0.00043931,0.00041752,-0.00053827,0.00104424,-0.
 00003920,0.00137328,-0.00162027,-0.00745421,0.01867583,-0.00541983,0.0
 0420897,-0.00268309,-0.00433872,-0.00123701,0.00047476,0.00159815,-0.0
 0087285,-0.00033405,-0.00046095,0.00036659,0.00009214,0.00008198,0.000
 46492,0.00019024,0.00016596,-0.12264050,-0.16703842,-0.12273151,0.1592
 9684,0.17182944,0.00081505,0.00030704,0.00063170,0.00035522,0.00099596
 ,0.00006783,-0.00062779,-0.00110071,0.00106533,-0.01739638,-0.00656722
 ,0.01179000,0.00525512,-0.00492244,-0.00515378,-0.00164284,0.00173348,
 0.00133207,-0.00120622,-0.00060991,-0.00097726,0.00044922,0.00014420,0
 .00029259,0.00071436,0.00024269,0.00048963,-0.19145110,-0.12236671,-0.
 26502395,0.24840550,0.20328457,0.32516085,-0.00031890,0.00107072,0.001
 38113,0.00131231,0.00067120,0.00108675,-0.00604127,0.00123783,0.000986
 44,-0.01302873,0.03245303,0.03980941,-0.00584000,-0.00238871,-0.003983
 93,-0.00227263,0.00178690,0.00229547,-0.00046170,-0.00199793,-0.002646
 26,-0.00084499,0.00105533,0.00130067,0.00059841,0.00084466,0.00117602,
 -0.17030952,0.07184892,0.08733897,0.03894141,-0.03605940,-0.04706246,0
 .16264098,-0.00015022,0.00015884,0.00003232,0.00133642,-0.00038503,0.0
 0059012,-0.00453962,-0.00140735,-0.00353148,0.02032397,-0.00037710,-0.
 02815342,0.00287364,0.00258231,0.00019768,0.00076458,-0.00104349,0.000
 61276,-0.00046720,0.00003080,0.00074364,0.00068980,-0.00023866,-0.0005
 2805,0.00024166,-0.00011070,-0.00017548,0.07562017,-0.25885640,-0.2257
 8352,-0.02467859,-0.02377465,-0.07280267,-0.07251184,0.28141240,-0.000
 24122,0.00015088,0.00030034,0.00197558,0.00052387,0.00015400,-0.006709
 65,-0.00297873,-0.00368018,0.02367461,-0.02699403,-0.01141795,0.003015
 89,-0.00030480,0.00252141,0.00093598,0.00070788,-0.00041453,-0.0006123
 8,0.00059792,0.00017302,0.00081699,-0.00049438,-0.00036866,0.00037542,
 -0.00011806,-0.00008193,0.09235276,-0.22613658,-0.37596497,-0.03191312
 ,-0.07389905,-0.07232258,-0.08385991,0.32681925,0.45770652,-0.32361923
 ,0.05940871,0.05217852,-0.00009018,-0.00009846,-0.00068768,0.00113993,
 0.00059413,0.00018650,0.00093099,-0.00041834,-0.00046449,-0.00144057,-
 0.00169578,-0.00298472,-0.01725366,0.00526140,0.00481015,-0.00255648,0
 .00078111,0.00117454,0.00182777,0.00087564,0.00136340,0.00048479,-0.00
 001115,0.00002015,-0.00048187,-0.00003922,0.00002420,0.00008333,0.0001
 1353,0.00015092,0.00004638,0.00001238,0.00001522,0.34104739,0.06058545
 ,-0.06246658,-0.01940922,0.01724395,0.00202911,-0.00326268,0.00112226,
 0.00275591,-0.00612087,-0.00056189,-0.00054159,-0.00073490,-0.00177272
 ,0.00290443,-0.00452984,-0.01122257,0.00806640,0.00224600,-0.00193094,
 -0.00235942,0.00199881,0.00088095,-0.00076296,-0.00060382,0.00087937,0
 .00032679,0.00035970,0.00008704,-0.00102905,0.00034252,-0.00002646,0.0
 0015936,0.00009819,0.00004216,0.00017194,0.00015242,-0.06486357,0.0528
 8176,0.05373722,-0.01952193,-0.06432122,0.02237008,-0.00492102,0.00132
 171,0.00089094,-0.00617171,-0.00067885,-0.00065474,-0.00072148,-0.0010
 5131,-0.00308726,-0.00452211,-0.00012379,-0.01710030,0.00382285,0.0090
 1678,-0.00242889,0.00225838,-0.00123376,0.00136808,-0.00060359,-0.0009
 1611,0.00120274,0.00027353,0.00059885,0.00019191,0.00033104,-0.0008228
 2,-0.00003555,0.00011132,0.00022852,0.00005509,0.00014915,0.00026416,-
 0.05628473,0.02674877,0.05827228,0.01018968,0.00426147,0.00624739,-0.2
 0556600,-0.07911423,-0.12101300,-0.01698925,-0.01230306,-0.01835272,-0
 .00389319,0.00226868,0.00193960,-0.00047833,0.00062023,0.00085191,0.00
 078723,0.00166686,0.00159714,0.00052485,0.00013989,0.00021196,-0.00005
 738,-0.00002992,-0.00004970,-0.00003200,0.00012989,0.00018309,0.000001
 35,-0.00101433,-0.00140479,-0.00092474,0.00002283,-0.00002284,-0.00012
 375,0.00021233,0.00026692,0.00051765,-0.00052423,-0.00026048,0.2148922
 3,-0.01408479,-0.00271878,-0.01041386,-0.07920825,-0.09052614,-0.07477
 837,0.00604107,0.00652822,0.00409489,0.00182623,0.00478032,-0.00327571
 ,0.00068199,-0.00073059,0.00011081,0.00188405,0.00280013,-0.00575488,-
 0.00103377,0.00032114,-0.00001573,0.00025642,-0.00005330,-0.00010641,0
 .00004083,-0.00039654,-0.00033352,0.00034445,0.00065062,0.00011371,0.0
 0022105,-0.00025069,0.00018817,-0.00004654,-0.00000436,-0.00005971,-0.
 00006261,-0.00217504,0.00248402,0.08385373,0.08480528,-0.01814303,-0.0
 0866001,-0.00914700,-0.12113846,-0.07476919,-0.15095959,0.00603572,0.0
 0234058,0.00757149,0.00135058,-0.00323361,0.00320576,0.00093340,0.0001
 0477,-0.00053637,0.00188478,-0.00577498,-0.00023347,-0.00134803,0.0000
 9695,0.00025686,0.00033072,-0.00013398,-0.00010021,0.00006485,-0.00032
 522,-0.00056819,0.00040148,-0.00001614,0.00060659,0.00024190,0.0001689
 6,-0.00012807,-0.00007691,-0.00003509,-0.00001673,0.00035387,0.0024398
 2,-0.00077068,0.12946391,0.08511014,0.15234634,-0.00523349,0.00141791,
 0.00066980,-0.00131718,0.01703981,0.02198014,-0.07835299,0.04754413,0.
 05975281,0.01201934,-0.01233312,-0.01581348,-0.00360681,-0.00172666,-0
 .00316882,-0.00148184,-0.00034198,-0.00052123,-0.00040463,0.00017067,0
 .00027486,0.00030442,-0.00001854,-0.00000288,0.00010525,-0.00006811,-0
 .00008560,0.00091923,-0.00146807,-0.00143883,0.00102112,0.00102878,0.0
 0142267,-0.00429152,0.00107505,0.00102566,-0.00002092,0.00069925,0.000
 97657,0.00112735,-0.00056783,-0.00025791,0.07851016,0.00089189,0.00511
 765,-0.00305398,0.00017785,0.00284364,-0.00383775,0.04612198,-0.150928
 51,-0.14014600,0.00376524,-0.00197507,-0.01013275,-0.00170387,0.003288
 20,-0.00313048,-0.00017996,-0.00014347,0.00083889,0.00000429,-0.000770
 45,0.00018397,-0.00004059,0.00009300,0.00001377,0.00006158,0.00006887,
 0.00002663,0.00059255,-0.00419954,0.00042915,0.00004966,0.00057200,0.0
 0013164,0.00200416,0.00076733,0.00129119,-0.00011970,-0.00036597,0.000
 18367,-0.00013368,-0.00238438,0.00223170,-0.05177221,0.14794962,-0.000
 03092,-0.00300455,0.00348079,-0.00044166,-0.00222345,0.00274438,0.0578
 6689,-0.14001015,-0.22281840,0.00558348,-0.01167159,-0.00906703,-0.003
 13619,-0.00313285,0.00105480,-0.00030483,0.00082391,0.00027877,0.00005
 432,0.00019956,-0.00063816,-0.00003289,0.00001590,0.00009780,0.0000869
 2,0.00001405,0.00008033,0.00130862,0.00023288,-0.00404862,0.00011473,0
 .00022310,0.00078522,0.00226250,0.00120243,0.00175567,-0.00011203,0.00
 026199,-0.00017507,0.00031946,0.00218989,-0.00113028,-0.06393899,0.155
 40176,0.22784492,-0.00407658,0.00206073,0.00167169,-0.00035111,0.00049
 467,0.00074595,-0.00000521,0.00197863,0.00206425,0.01082351,0.00214236
 ,0.00331583,-0.21099948,-0.08155672,-0.12464618,-0.01393076,-0.0110039
 0,-0.01639440,-0.00161175,-0.00134924,-0.00151820,0.00112395,0.0000381
 3,0.00009105,0.00088717,0.00005667,0.00014269,0.00013818,-0.00033579,0
 .00002895,-0.00430936,0.00172250,0.00187872,0.00009822,-0.00080586,-0.
 00111401,-0.00058476,-0.00059814,-0.00086727,-0.00000706,-0.00008624,-
 0.00002604,0.00067248,0.00027576,0.00038851,0.22156753,0.00236472,0.00
 436034,-0.00339090,0.00051037,-0.00094534,0.00048137,0.00188434,0.0019
 9120,-0.00503594,-0.01318789,-0.00103715,-0.01054916,-0.08147881,-0.09
 059331,-0.07288839,0.00458415,0.00723947,0.00409289,0.00017805,-0.0021
 3261,0.00315255,-0.00047229,0.00039619,-0.00046986,0.00062590,-0.00136
 081,-0.00199303,-0.00226754,-0.00396080,0.00092072,0.00072967,0.000828
 73,0.00120845,0.00013199,0.00101071,0.00065902,0.00032900,0.00034001,0
 .00025854,-0.00007950,-0.00058993,0.00044872,-0.00069416,0.00008759,-0
 .00053160,0.08681368,0.08441665,0.00207796,-0.00341937,0.00273344,0.00
 076807,0.00047905,-0.00056040,0.00193693,-0.00502674,-0.00058449,-0.01
 706403,-0.00908139,-0.00776121,-0.12453817,-0.07289794,-0.15048645,0.0
 0432602,0.00260422,0.00836886,0.00051361,0.00300327,-0.00044780,-0.000
 59175,-0.00041878,0.00010060,0.00090058,-0.00204845,-0.00245266,-0.002
 54411,0.00110883,-0.00359061,0.00055794,0.00130389,0.00176121,0.000135
 51,0.00056571,0.00129190,0.00036546,0.00017017,0.00043006,-0.00001709,
 0.00044796,-0.00033910,-0.00090018,-0.00043920,-0.00023186,0.13397353,
 0.08358455,0.15176206,0.00068610,-0.00058267,-0.00075742,-0.00031301,-
 0.00015771,-0.00020710,-0.00014865,0.00008918,0.00010219,0.00022845,0.
 00007637,0.00011306,-0.00045293,0.00027888,0.00034830,-0.00459486,-0.0
 0129736,-0.00261225,0.02024735,-0.02590820,-0.03283950,-0.00326019,0.0
 0362314,0.00504620,-0.12059978,0.12085348,0.15034430,0.00028926,0.0000
 0961,0.00003733,-0.00019974,-0.00001662,-0.00003716,-0.00010472,0.0000
 0332,-0.00000474,-0.00003056,-0.00003991,-0.00007341,0.00003137,-0.000
 05982,-0.00007081,0.00003001,0.00000506,0.00001207,0.00056503,0.000028
 31,0.00009974,0.10762686,0.00034724,0.00000866,-0.00061766,-0.00039830
 ,-0.00017231,0.00017929,0.00005592,0.00009465,0.00010112,0.00004779,0.
 00010903,0.00000330,-0.00027687,0.00018972,0.00050706,-0.00215905,0.00
 319977,-0.00209466,0.00184810,-0.01265479,-0.02194971,0.00448841,-0.00
 167966,0.00579901,0.09281871,-0.17479001,-0.20282698,0.00031004,-0.000
 05902,-0.00009301,-0.00015825,-0.00000463,0.00003527,-0.00014247,0.000
 06342,0.00008292,-0.00006706,0.00006491,-0.00015944,0.00002302,-0.0000
 5596,0.00000656,0.00001508,-0.00002050,0.00000873,0.00015277,-0.000050
 92,0.00006423,-0.09690507,0.18575764,0.00047927,-0.00070775,-0.0003970
 1,-0.00052781,0.00020266,-0.00011737,0.00005836,0.00010422,0.00016681,
 0.00007453,0.00000565,0.00012464,-0.00039029,0.00055953,0.00049549,-0.
 00375625,-0.00201974,0.00158210,0.00401571,-0.02461271,-0.02830601,0.0
 0620292,0.00571189,0.00246966,0.11311140,-0.20012309,-0.27013065,0.000
 43653,-0.00012152,-0.00008668,-0.00022539,0.00004884,0.00000068,-0.000
 19847,0.00009666,0.00010050,-0.00010929,-0.00015706,-0.00003874,0.0000
 3926,-0.00000142,-0.00005736,0.00002539,0.00000777,-0.00001326,0.00026
 495,0.00005211,0.00000644,-0.11950081,0.22095396,0.29420075\\0.0000678
 9,0.00003757,0.00005252,0.00002546,0.00001151,0.00002247,0.00004426,0.
 00004377,0.00006599,-0.00001401,-0.00003880,-0.00003617,-0.00007802,0.
 00002499,0.00001361,0.00007744,-0.00015102,-0.00027966,-0.00004323,0.0
 0002287,0.00030414,0.00000644,0.00002780,-0.00007049,-0.00000104,0.000
 01008,-0.00005921,-0.00005395,0.00003413,-0.00000220,-0.00001538,0.000
 03328,0.00006174,-0.00000402,-0.00004229,-0.00004513,-0.00001159,-0.00
 001050,-0.00001649,-0.00000071,-0.00000498,-0.00000535,-0.00000704,-0.
 00000834,-0.00001194,0.00001912,0.00001135,0.00001620,-0.00001160,-0.0
 0000143,-0.00001003\\\@
 The archive entry for this job was punched.


 The cat could very well be man's best friend
 but would never stoop to admitting it.
                               -- Doug Larson
 Job cpu time:       0 days 21 hours 22 minutes 53.1 seconds.
 Elapsed time:       0 days  0 hours 32 minutes  5.3 seconds.
 File lengths (MBytes):  RWF=    538 Int=      0 D2E=      0 Chk=     41 Scr=      1
 Normal termination of Gaussian 16 at Tue Sep  6 17:23:31 2022.
