 Entering Gaussian System, Link 0=g16
 Initial command:
 /usr/local/gaussian16c01/g16/l1.exe "/scr/dhuang/Gau-114493.inp" -scrdir="/scr/dhuang/"
 Entering Link 1 = /usr/local/gaussian16c01/g16/l1.exe PID=    114496.
  
 Copyright (c) 1988-2019, Gaussian, Inc.  All Rights Reserved.
  
 This is part of the Gaussian(R) 16 program.  It is based on
 the Gaussian(R) 09 system (copyright 2009, Gaussian, Inc.),
 the Gaussian(R) 03 system (copyright 2003, Gaussian, Inc.),
 the Gaussian(R) 98 system (copyright 1998, Gaussian, Inc.),
 the Gaussian(R) 94 system (copyright 1995, Gaussian, Inc.),
 the Gaussian 92(TM) system (copyright 1992, Gaussian, Inc.),
 the Gaussian 90(TM) system (copyright 1990, Gaussian, Inc.),
 the Gaussian 88(TM) system (copyright 1988, Gaussian, Inc.),
 the Gaussian 86(TM) system (copyright 1986, Carnegie Mellon
 University), and the Gaussian 82(TM) system (copyright 1983,
 Carnegie Mellon University). Gaussian is a federally registered
 trademark of Gaussian, Inc.
  
 This software contains proprietary and confidential information,
 including trade secrets, belonging to Gaussian, Inc.
  
 This software is provided under written license and may be
 used, copied, transmitted, or stored only in accord with that
 written license.
  
 The following legend is applicable only to US Government
 contracts under FAR:
  
                    RESTRICTED RIGHTS LEGEND
  
 Use, reproduction and disclosure by the US Government is
 subject to restrictions as set forth in subparagraphs (a)
 and (c) of the Commercial Computer Software - Restricted
 Rights clause in FAR 52.227-19.
  
 Gaussian, Inc.
 340 Quinnipiac St., Bldg. 40, Wallingford CT 06492
  
  
 ---------------------------------------------------------------
 Warning -- This program may not be used in any manner that
 competes with the business of Gaussian, Inc. or will provide
 assistance to any competitor of Gaussian, Inc.  The licensee
 of this program is prohibited from giving any competitor of
 Gaussian, Inc. access to this program.  By using this program,
 the user acknowledges that Gaussian, Inc. is engaged in the
 business of creating and licensing software in the field of
 computational chemistry and represents and warrants to the
 licensee that it is not a competitor of Gaussian, Inc. and that
 it will not use this program in any manner prohibited above.
 ---------------------------------------------------------------
  

 Cite this work as:
 Gaussian 16, Revision C.01,
 M. J. Frisch, G. W. Trucks, H. B. Schlegel, G. E. Scuseria, 
 M. A. Robb, J. R. Cheeseman, G. Scalmani, V. Barone, 
 G. A. Petersson, H. Nakatsuji, X. Li, M. Caricato, A. V. Marenich, 
 J. Bloino, B. G. Janesko, R. Gomperts, B. Mennucci, H. P. Hratchian, 
 J. V. Ortiz, A. F. Izmaylov, J. L. Sonnenberg, D. Williams-Young, 
 F. Ding, F. Lipparini, F. Egidi, J. Goings, B. Peng, A. Petrone, 
 T. Henderson, D. Ranasinghe, V. G. Zakrzewski, J. Gao, N. Rega, 
 G. Zheng, W. Liang, M. Hada, M. Ehara, K. Toyota, R. Fukuda, 
 J. Hasegawa, M. Ishida, T. Nakajima, Y. Honda, O. Kitao, H. Nakai, 
 T. Vreven, K. Throssell, J. A. Montgomery, Jr., J. E. Peralta, 
 F. Ogliaro, M. J. Bearpark, J. J. Heyd, E. N. Brothers, K. N. Kudin, 
 V. N. Staroverov, T. A. Keith, R. Kobayashi, J. Normand, 
 K. Raghavachari, A. P. Rendell, J. C. Burant, S. S. Iyengar, 
 J. Tomasi, M. Cossi, J. M. Millam, M. Klene, C. Adamo, R. Cammi, 
 J. W. Ochterski, R. L. Martin, K. Morokuma, O. Farkas, 
 J. B. Foresman, and D. J. Fox, Gaussian, Inc., Wallingford CT, 2019.
 
 ******************************************
 Gaussian 16:  ES64L-G16RevC.01  3-Jul-2019
                 6-Sep-2022 
 ******************************************
 %nprocshared=40
 Will use up to   40 processors via shared memory.
 %mem=10000MW
 %chk=3-OMe.chk
 ------------------------------------
 # opt freq M062x/aug-cc-pvtz pop=nbo
 ------------------------------------
 1/18=20,19=15,26=3,38=1/1,3;
 2/9=110,12=2,17=6,18=5,40=1/2;
 3/5=16,6=1,7=10,11=2,25=1,30=1,71=1,74=-55/1,2,3;
 4//1;
 5/5=2,38=5/2;
 6/7=2,8=2,9=2,10=2,28=1,40=1/1,7;
 7//1,2,3,16;
 1/18=20,19=15,26=3/3(2);
 2/9=110/2;
 99//99;
 2/9=110/2;
 3/5=16,6=1,7=10,11=2,25=1,30=1,71=1,74=-55/1,2,3;
 4/5=5,16=3,69=1/1;
 5/5=2,38=5/2;
 7//1,2,3,16;
 1/18=20,19=15,26=3/3(-5);
 2/9=110/2;
 6/7=2,8=2,9=2,10=2,19=2,28=1,40=1/1,7;
 99/9=1/99;
 ------------------
 3-OMe_benzoic-acid
 ------------------
 Symbolic Z-matrix:
 Charge =  0 Multiplicity = 1
 C                    -2.4154   -0.3127   -0.5648 
 C                    -2.1199   -1.1115   -1.5997 
 C                    -0.8423   -1.4094   -1.8726 
 C                     0.1799   -0.9316   -1.1374 
 C                    -0.1526   -0.1306   -0.103 
 C                    -1.427     0.1883    0.1981 
 C                    -1.6988    1.0046    1.2586 
 O                    -2.8256    1.3239    1.5745 
 O                    -0.7234    1.5245    2.0454 
 O                     1.4597   -1.2907   -1.4915 
 C                     2.5427   -0.8011   -0.7351 
 H                    -3.4789   -0.0927   -0.375 
 H                    -2.9277   -1.5242   -2.2277 
 H                    -0.6225   -2.0691   -2.7297 
 H                     0.6545    0.2799    0.5218 
 H                    -1.1444    2.0691    2.7297 
 H                     3.4789   -1.2048   -1.1821 
 H                     2.5839    0.3096   -0.7911 
 H                     2.477    -1.1632    0.3152 
 

 GradGradGradGradGradGradGradGradGradGradGradGradGradGradGradGradGradGrad
 Berny optimization.
 Initialization pass.
                           ----------------------------
                           !    Initial Parameters    !
                           ! (Angstroms and Degrees)  !
 --------------------------                            --------------------------
 ! Name  Definition              Value          Derivative Info.                !
 --------------------------------------------------------------------------------
 ! R1    R(1,2)                  1.3403         estimate D2E/DX2                !
 ! R2    R(1,6)                  1.3453         estimate D2E/DX2                !
 ! R3    R(1,12)                 1.1025         estimate D2E/DX2                !
 ! R4    R(2,3)                  1.34           estimate D2E/DX2                !
 ! R5    R(2,13)                 1.1033         estimate D2E/DX2                !
 ! R6    R(3,4)                  1.3467         estimate D2E/DX2                !
 ! R7    R(3,14)                 1.1037         estimate D2E/DX2                !
 ! R8    R(4,5)                  1.3499         estimate D2E/DX2                !
 ! R9    R(4,10)                 1.3756         estimate D2E/DX2                !
 ! R10   R(5,6)                  1.3478         estimate D2E/DX2                !
 ! R11   R(5,15)                 1.1001         estimate D2E/DX2                !
 ! R12   R(6,7)                  1.3656         estimate D2E/DX2                !
 ! R13   R(7,8)                  1.213          estimate D2E/DX2                !
 ! R14   R(7,9)                  1.3567         estimate D2E/DX2                !
 ! R15   R(9,16)                 0.9706         estimate D2E/DX2                !
 ! R16   R(10,11)                1.4088         estimate D2E/DX2                !
 ! R17   R(11,17)                1.1132         estimate D2E/DX2                !
 ! R18   R(11,18)                1.1129         estimate D2E/DX2                !
 ! R19   R(11,19)                1.1129         estimate D2E/DX2                !
 ! A1    A(2,1,6)              119.8557         estimate D2E/DX2                !
 ! A2    A(2,1,12)             117.6802         estimate D2E/DX2                !
 ! A3    A(6,1,12)             122.4641         estimate D2E/DX2                !
 ! A4    A(1,2,3)              119.9979         estimate D2E/DX2                !
 ! A5    A(1,2,13)             120.0674         estimate D2E/DX2                !
 ! A6    A(3,2,13)             119.9348         estimate D2E/DX2                !
 ! A7    A(2,3,4)              122.2517         estimate D2E/DX2                !
 ! A8    A(2,3,14)             118.746          estimate D2E/DX2                !
 ! A9    A(4,3,14)             119.0023         estimate D2E/DX2                !
 ! A10   A(3,4,5)              116.2248         estimate D2E/DX2                !
 ! A11   A(3,4,10)             118.2307         estimate D2E/DX2                !
 ! A12   A(5,4,10)             125.5445         estimate D2E/DX2                !
 ! A13   A(4,5,6)              122.9916         estimate D2E/DX2                !
 ! A14   A(4,5,15)             118.4186         estimate D2E/DX2                !
 ! A15   A(6,5,15)             118.5898         estimate D2E/DX2                !
 ! A16   A(1,6,5)              118.6783         estimate D2E/DX2                !
 ! A17   A(1,6,7)              121.1143         estimate D2E/DX2                !
 ! A18   A(5,6,7)              120.2074         estimate D2E/DX2                !
 ! A19   A(6,7,8)              122.9885         estimate D2E/DX2                !
 ! A20   A(6,7,9)              122.4335         estimate D2E/DX2                !
 ! A21   A(8,7,9)              114.5781         estimate D2E/DX2                !
 ! A22   A(7,9,16)             108.1814         estimate D2E/DX2                !
 ! A23   A(4,10,11)            119.096          estimate D2E/DX2                !
 ! A24   A(10,11,17)           107.7508         estimate D2E/DX2                !
 ! A25   A(10,11,18)           110.3828         estimate D2E/DX2                !
 ! A26   A(10,11,19)           110.3802         estimate D2E/DX2                !
 ! A27   A(17,11,18)           108.0951         estimate D2E/DX2                !
 ! A28   A(17,11,19)           108.0958         estimate D2E/DX2                !
 ! A29   A(18,11,19)           111.9874         estimate D2E/DX2                !
 ! D1    D(6,1,2,3)             -0.0046         estimate D2E/DX2                !
 ! D2    D(6,1,2,13)          -179.9935         estimate D2E/DX2                !
 ! D3    D(12,1,2,3)           179.9959         estimate D2E/DX2                !
 ! D4    D(12,1,2,13)            0.0069         estimate D2E/DX2                !
 ! D5    D(2,1,6,5)              0.0025         estimate D2E/DX2                !
 ! D6    D(2,1,6,7)           -180.0            estimate D2E/DX2                !
 ! D7    D(12,1,6,5)          -179.998          estimate D2E/DX2                !
 ! D8    D(12,1,6,7)            -0.0004         estimate D2E/DX2                !
 ! D9    D(1,2,3,4)              0.0022         estimate D2E/DX2                !
 ! D10   D(1,2,3,14)          -179.9977         estimate D2E/DX2                !
 ! D11   D(13,2,3,4)           179.9911         estimate D2E/DX2                !
 ! D12   D(13,2,3,14)           -0.0087         estimate D2E/DX2                !
 ! D13   D(2,3,4,5)              0.0023         estimate D2E/DX2                !
 ! D14   D(2,3,4,10)           179.9979         estimate D2E/DX2                !
 ! D15   D(14,3,4,5)          -179.9979         estimate D2E/DX2                !
 ! D16   D(14,3,4,10)           -0.0023         estimate D2E/DX2                !
 ! D17   D(3,4,5,6)             -0.0045         estimate D2E/DX2                !
 ! D18   D(3,4,5,15)           179.9985         estimate D2E/DX2                !
 ! D19   D(10,4,5,6)          -179.9998         estimate D2E/DX2                !
 ! D20   D(10,4,5,15)            0.0033         estimate D2E/DX2                !
 ! D21   D(3,4,10,11)          179.9888         estimate D2E/DX2                !
 ! D22   D(5,4,10,11)           -0.0161         estimate D2E/DX2                !
 ! D23   D(4,5,6,1)              0.0022         estimate D2E/DX2                !
 ! D24   D(4,5,6,7)           -179.9954         estimate D2E/DX2                !
 ! D25   D(15,5,6,1)           179.9992         estimate D2E/DX2                !
 ! D26   D(15,5,6,7)             0.0016         estimate D2E/DX2                !
 ! D27   D(1,6,7,8)              0.0013         estimate D2E/DX2                !
 ! D28   D(1,6,7,9)           -179.9999         estimate D2E/DX2                !
 ! D29   D(5,6,7,8)            179.9988         estimate D2E/DX2                !
 ! D30   D(5,6,7,9)             -0.0024         estimate D2E/DX2                !
 ! D31   D(6,7,9,16)          -179.9992         estimate D2E/DX2                !
 ! D32   D(8,7,9,16)            -0.0003         estimate D2E/DX2                !
 ! D33   D(4,10,11,17)        -179.9904         estimate D2E/DX2                !
 ! D34   D(4,10,11,18)         -62.1607         estimate D2E/DX2                !
 ! D35   D(4,10,11,19)          62.1804         estimate D2E/DX2                !
 --------------------------------------------------------------------------------
 Trust Radius=3.00D-01 FncErr=1.00D-07 GrdErr=1.00D-06 EigMax=2.50D+02 EigMin=1.00D-04
 Number of steps in this run=     93 maximum allowed number of steps=    114.
 GradGradGradGradGradGradGradGradGradGradGradGradGradGradGradGradGradGrad

                          Input orientation:                          
 ---------------------------------------------------------------------
 Center     Atomic      Atomic             Coordinates (Angstroms)
 Number     Number       Type             X           Y           Z
 ---------------------------------------------------------------------
      1          6           0       -2.415400   -0.312700   -0.564800
      2          6           0       -2.119900   -1.111500   -1.599700
      3          6           0       -0.842300   -1.409400   -1.872600
      4          6           0        0.179900   -0.931600   -1.137400
      5          6           0       -0.152600   -0.130600   -0.103000
      6          6           0       -1.427000    0.188300    0.198100
      7          6           0       -1.698800    1.004600    1.258600
      8          8           0       -2.825600    1.323900    1.574500
      9          8           0       -0.723400    1.524500    2.045400
     10          8           0        1.459700   -1.290700   -1.491500
     11          6           0        2.542700   -0.801100   -0.735100
     12          1           0       -3.478900   -0.092700   -0.375000
     13          1           0       -2.927700   -1.524200   -2.227700
     14          1           0       -0.622500   -2.069100   -2.729700
     15          1           0        0.654500    0.279900    0.521800
     16          1           0       -1.144400    2.069100    2.729700
     17          1           0        3.478900   -1.204800   -1.182100
     18          1           0        2.583900    0.309600   -0.791100
     19          1           0        2.477000   -1.163200    0.315200
 ---------------------------------------------------------------------
                    Distance matrix (angstroms):
                    1          2          3          4          5
     1  C    0.000000
     2  C    1.340306   0.000000
     3  C    2.321150   1.339955   0.000000
     4  C    2.728826   2.352693   1.346739   0.000000
     5  C    2.316610   2.659426   2.289651   1.349867   0.000000
     6  C    1.345345   2.324150   2.679985   2.370625   1.347759
     7  C    2.360844   3.581213   4.045417   3.608213   2.352311
     8  O    2.724579   4.062602   4.825651   4.634082   3.474839
     9  O    3.612660   4.710145   4.896185   4.120509   2.771424
    10  O    4.102640   3.585716   2.336350   1.375583   2.423484
    11  C    4.985007   4.752233   3.622452   2.400354   2.848467
    12  H    1.102477   2.093973   3.305777   3.830382   3.337618
    13  H    2.120241   1.103289   2.118530   3.346208   3.762665
    14  H    3.314547   2.106206   1.103692   2.114987   3.298203
    15  H    3.310009   3.759528   3.290486   2.108536   1.100134
    16  H    4.259359   5.459993   5.776884   5.070743   3.721093
    17  H    5.993302   5.615127   4.380801   3.310595   3.937786
    18  H    5.042962   4.979869   3.982895   2.727584   2.855817
    19  H    5.043147   4.980061   3.983069   2.727701   2.855862
                    6          7          8          9         10
     6  C    0.000000
     7  C    1.365607   0.000000
     8  O    2.267189   1.213022   0.000000
     9  O    2.386001   1.356744   2.163615   0.000000
    10  O    3.657216   4.775728   5.882201   5.020054   0.000000
    11  C    4.196224   5.022521   6.218402   4.879242   1.408807
    12  H    2.148883   2.653577   2.496819   4.008298   5.203032
    13  H    3.327050   4.478762   4.751718   5.693232   4.454862
    14  H    3.783528   5.149038   5.906965   5.977100   2.544524
    15  H    2.108510   2.570231   3.782752   2.401873   2.677407
    16  H    3.166429   1.898593   2.171691   0.970617   5.990670
    17  H    5.283326   6.135719   7.330749   5.960299   2.044572
    18  H    4.132862   4.798522   5.990623   4.523267   2.077341
    19  H    4.132975   4.798611   5.990749   4.523260   2.077335
                   11         12         13         14         15
    11  C    0.000000
    12  H    6.073810   0.000000
    13  H    5.716293   2.405309   0.000000
    14  H    3.950284   4.196402   2.421336   0.000000
    15  H    2.512699   4.245948   4.862786   4.209606   0.000000
    16  H    5.817009   4.445496   6.377129   6.870380   3.363347
    17  H    1.113217   7.092190   6.499217   4.468060   3.617298
    18  H    1.112874   6.090364   5.983676   4.438174   2.333918
    19  H    1.112907   6.090574   5.983932   4.438352   2.333822
                   16         17         18         19
    16  H    0.000000
    17  H    6.884439   0.000000
    18  H    5.421448   1.802030   0.000000
    19  H    5.421449   1.802066   1.845120   0.000000
 Stoichiometry    C8H8O3
 Framework group  C1[X(C8H8O3)]
 Deg. of freedom    51
 Full point group                 C1      NOp   1
 Largest Abelian subgroup         C1      NOp   1
 Largest concise Abelian subgroup C1      NOp   1
                         Standard orientation:                         
 ---------------------------------------------------------------------
 Center     Atomic      Atomic             Coordinates (Angstroms)
 Number     Number       Type             X           Y           Z
 ---------------------------------------------------------------------
      1          6           0       -0.943114    1.560942    0.000034
      2          6           0        0.201529    2.258230   -0.000006
      3          6           0        1.377389    1.615709   -0.000018
      4          6           0        1.461913    0.271625   -0.000035
      5          6           0        0.290816   -0.399696   -0.000087
      6          6           0       -0.908061    0.216054   -0.000033
      7          6           0       -2.058425   -0.519843    0.000005
      8          8           0       -3.163068   -0.018657    0.000075
      9          8           0       -2.054308   -1.876581   -0.000058
     10          8           0        2.712318   -0.301710   -0.000091
     11          6           0        2.821960   -1.706245    0.000133
     12          1           0       -1.888408    2.128282    0.000113
     13          1           0        0.176857    3.361243    0.000156
     14          1           0        2.307191    2.210355   -0.000012
     15          1           0        0.317781   -1.499500   -0.000127
     16          1           0       -2.975541   -2.182236   -0.000027
     17          1           0        3.905377   -1.962097    0.000221
     18          1           0        2.366552   -2.130432    0.922714
     19          1           0        2.366618   -2.130684   -0.922406
 ---------------------------------------------------------------------
 Rotational constants (GHZ):           1.9183111           0.8305384           0.5818889
 Standard basis: Aug-CC-pVTZ (5D, 7F)
 There are   805 symmetry adapted cartesian basis functions of A   symmetry.
 There are   690 symmetry adapted basis functions of A   symmetry.
   690 basis functions,  1008 primitive gaussians,   805 cartesian basis functions
    40 alpha electrons       40 beta electrons
       nuclear repulsion energy       593.9440930576 Hartrees.
 NAtoms=   19 NActive=   19 NUniq=   19 SFac= 1.00D+00 NAtFMM=   60 NAOKFM=F Big=F
 Integral buffers will be    131072 words long.
 Raffenetti 2 integral format.
 Two-electron integral symmetry is turned on.
 One-electron integrals computed using PRISM.
 NBasis=   690 RedAO= T EigKep=  1.21D-06  NBF=   690
 NBsUse=   687 1.00D-06 EigRej=  8.94D-07 NBFU=   687
 ExpMin= 2.53D-02 ExpMax= 1.53D+04 ExpMxC= 5.22D+02 IAcc=3 IRadAn=         5 AccDes= 0.00D+00
 Harris functional with IExCor= 1009 and IRadAn=       5 diagonalized for initial guess.
 HarFok:  IExCor= 1009 AccDes= 0.00D+00 IRadAn=         5 IDoV= 1 UseB2=F ITyADJ=14
 ICtDFT=  3500011 ScaDFX=  1.000000  1.000000  1.000000  1.000000
 FoFCou: FMM=F IPFlag=           0 FMFlag=      100000 FMFlg1=           0
         NFxFlg=           0 DoJE=T BraDBF=F KetDBF=T FulRan=T
         wScrn=  0.000000 ICntrl=       500 IOpCl=  0 I1Cent=   200000004 NGrid=           0
         NMat0=    1 NMatS0=      1 NMatT0=    0 NMatD0=    1 NMtDS0=    0 NMtDT0=    0
 Petite list used in FoFCou.
 Requested convergence on RMS density matrix=1.00D-08 within 128 cycles.
 Requested convergence on MAX density matrix=1.00D-06.
 Requested convergence on             energy=1.00D-06.
 No special actions if energy rises.
 SCF Done:  E(RM062X) =  -535.312872008     A.U. after   13 cycles
            NFock= 13  Conv=0.83D-08     -V/T= 2.0037

 **********************************************************************

            Population analysis using the SCF Density.

 **********************************************************************

 Orbital symmetries:
       Occupied  (A) (A) (A) (A) (A) (A) (A) (A) (A) (A) (A) (A)
                 (A) (A) (A) (A) (A) (A) (A) (A) (A) (A) (A) (A)
                 (A) (A) (A) (A) (A) (A) (A) (A) (A) (A) (A) (A)
                 (A) (A) (A) (A)
       Virtual   (A) (A) (A) (A) (A) (A) (A) (A) (A) (A) (A) (A)
                 (A) (A) (A) (A) (A) (A) (A) (A) (A) (A) (A) (A)
                 (A) (A) (A) (A) (A) (A) (A) (A) (A) (A) (A) (A)
                 (A) (A) (A) (A) (A) (A) (A) (A) (A) (A) (A) (A)
                 (A) (A) (A) (A) (A) (A) (A) (A) (A) (A) (A) (A)
                 (A) (A) (A) (A) (A) (A) (A) (A) (A) (A) (A) (A)
                 (A) (A) (A) (A) (A) (A) (A) (A) (A) (A) (A) (A)
                 (A) (A) (A) (A) (A) (A) (A) (A) (A) (A) (A) (A)
                 (A) (A) (A) (A) (A) (A) (A) (A) (A) (A) (A) (A)
                 (A) (A) (A) (A) (A) (A) (A) (A) (A) (A) (A) (A)
                 (A) (A) (A) (A) (A) (A) (A) (A) (A) (A) (A) (A)
                 (A) (A) (A) (A) (A) (A) (A) (A) (A) (A) (A) (A)
                 (A) (A) (A) (A) (A) (A) (A) (A) (A) (A) (A) (A)
                 (A) (A) (A) (A) (A) (A) (A) (A) (A) (A) (A) (A)
                 (A) (A) (A) (A) (A) (A) (A) (A) (A) (A) (A) (A)
                 (A) (A) (A) (A) (A) (A) (A) (A) (A) (A) (A) (A)
                 (A) (A) (A) (A) (A) (A) (A) (A) (A) (A) (A) (A)
                 (A) (A) (A) (A) (A) (A) (A) (A) (A) (A) (A) (A)
                 (A) (A) (A) (A) (A) (A) (A) (A) (A) (A) (A) (A)
                 (A) (A) (A) (A) (A) (A) (A) (A) (A) (A) (A) (A)
                 (A) (A) (A) (A) (A) (A) (A) (A) (A) (A) (A) (A)
                 (A) (A) (A) (A) (A) (A) (A) (A) (A) (A) (A) (A)
                 (A) (A) (A) (A) (A) (A) (A) (A) (A) (A) (A) (A)
                 (A) (A) (A) (A) (A) (A) (A) (A) (A) (A) (A) (A)
                 (A) (A) (A) (A) (A) (A) (A) (A) (A) (A) (A) (A)
                 (A) (A) (A) (A) (A) (A) (A) (A) (A) (A) (A) (A)
                 (A) (A) (A) (A) (A) (A) (A) (A) (A) (A) (A) (A)
                 (A) (A) (A) (A) (A) (A) (A) (A) (A) (A) (A) (A)
                 (A) (A) (A) (A) (A) (A) (A) (A) (A) (A) (A) (A)
                 (A) (A) (A) (A) (A) (A) (A) (A) (A) (A) (A) (A)
                 (A) (A) (A) (A) (A) (A) (A) (A) (A) (A) (A) (A)
                 (A) (A) (A) (A) (A) (A) (A) (A) (A) (A) (A) (A)
                 (A) (A) (A) (A) (A) (A) (A) (A) (A) (A) (A) (A)
                 (A) (A) (A) (A) (A) (A) (A) (A) (A) (A) (A) (A)
                 (A) (A) (A) (A) (A) (A) (A) (A) (A) (A) (A) (A)
                 (A) (A) (A) (A) (A) (A) (A) (A) (A) (A) (A) (A)
                 (A) (A) (A) (A) (A) (A) (A) (A) (A) (A) (A) (A)
                 (A) (A) (A) (A) (A) (A) (A) (A) (A) (A) (A) (A)
                 (A) (A) (A) (A) (A) (A) (A) (A) (A) (A) (A) (A)
                 (A) (A) (A) (A) (A) (A) (A) (A) (A) (A) (A) (A)
                 (A) (A) (A) (A) (A) (A) (A) (A) (A) (A) (A) (A)
                 (A) (A) (A) (A) (A) (A) (A) (A) (A) (A) (A) (A)
                 (A) (A) (A) (A) (A) (A) (A) (A) (A) (A) (A) (A)
                 (A) (A) (A) (A) (A) (A) (A) (A) (A) (A) (A) (A)
                 (A) (A) (A) (A) (A) (A) (A) (A) (A) (A) (A) (A)
                 (A) (A) (A) (A) (A) (A) (A) (A) (A) (A) (A) (A)
                 (A) (A) (A) (A) (A) (A) (A) (A) (A) (A) (A) (A)
                 (A) (A) (A) (A) (A) (A) (A) (A) (A) (A) (A) (A)
                 (A) (A) (A) (A) (A) (A) (A) (A) (A) (A) (A) (A)
                 (A) (A) (A) (A) (A) (A) (A) (A) (A) (A) (A) (A)
                 (A) (A) (A) (A) (A) (A) (A) (A) (A) (A) (A) (A)
                 (A) (A) (A) (A) (A) (A) (A) (A) (A) (A) (A) (A)
                 (A) (A) (A) (A) (A) (A) (A) (A) (A) (A) (A) (A)
                 (A) (A) (A) (A) (A) (A) (A) (A) (A) (A) (A)
 The electronic state is 1-A.
 Alpha  occ. eigenvalues --  -19.66678 -19.66614 -19.60520 -10.67074 -10.60934
 Alpha  occ. eigenvalues --  -10.60554 -10.55396 -10.55264 -10.54995 -10.54818
 Alpha  occ. eigenvalues --  -10.54635  -1.23833  -1.20106  -1.12832  -1.01182
 Alpha  occ. eigenvalues --   -0.90778  -0.87664  -0.80633  -0.77315  -0.71032
 Alpha  occ. eigenvalues --   -0.67558  -0.64093  -0.59889  -0.57358  -0.56433
 Alpha  occ. eigenvalues --   -0.56121  -0.55847  -0.54499  -0.51451  -0.50548
 Alpha  occ. eigenvalues --   -0.47909  -0.47645  -0.44288  -0.42956  -0.41420
 Alpha  occ. eigenvalues --   -0.40929  -0.39152  -0.35477  -0.33752  -0.30297
 Alpha virt. eigenvalues --   -0.03226  -0.00929   0.00117   0.00327   0.01416
 Alpha virt. eigenvalues --    0.01811   0.02355   0.02453   0.02506   0.04214
 Alpha virt. eigenvalues --    0.04577   0.05289   0.05461   0.05759   0.06553
 Alpha virt. eigenvalues --    0.07437   0.07978   0.08104   0.08425   0.08466
 Alpha virt. eigenvalues --    0.08974   0.09080   0.09322   0.09455   0.10268
 Alpha virt. eigenvalues --    0.10737   0.10771   0.11497   0.11498   0.12393
 Alpha virt. eigenvalues --    0.12525   0.13017   0.13190   0.13402   0.13809
 Alpha virt. eigenvalues --    0.15379   0.15497   0.16248   0.17363   0.17873
 Alpha virt. eigenvalues --    0.18102   0.18683   0.19016   0.19582   0.19798
 Alpha virt. eigenvalues --    0.20660   0.20746   0.20925   0.21663   0.21835
 Alpha virt. eigenvalues --    0.22120   0.22955   0.23201   0.23311   0.23837
 Alpha virt. eigenvalues --    0.23838   0.24783   0.25034   0.25264   0.25393
 Alpha virt. eigenvalues --    0.26265   0.26305   0.26498   0.27768   0.28275
 Alpha virt. eigenvalues --    0.28531   0.28975   0.29517   0.29897   0.30982
 Alpha virt. eigenvalues --    0.31420   0.31573   0.32516   0.32677   0.32844
 Alpha virt. eigenvalues --    0.33280   0.33957   0.35159   0.35239   0.35537
 Alpha virt. eigenvalues --    0.35621   0.35913   0.36800   0.37027   0.37028
 Alpha virt. eigenvalues --    0.37298   0.38061   0.38125   0.38450   0.38755
 Alpha virt. eigenvalues --    0.39734   0.39889   0.40306   0.40954   0.41304
 Alpha virt. eigenvalues --    0.41703   0.41956   0.42341   0.42381   0.43163
 Alpha virt. eigenvalues --    0.43548   0.43680   0.44393   0.45105   0.45535
 Alpha virt. eigenvalues --    0.45699   0.45995   0.47254   0.48131   0.48213
 Alpha virt. eigenvalues --    0.48470   0.49461   0.49916   0.51552   0.52222
 Alpha virt. eigenvalues --    0.52891   0.53295   0.54397   0.54772   0.55994
 Alpha virt. eigenvalues --    0.56716   0.56887   0.57283   0.57440   0.58056
 Alpha virt. eigenvalues --    0.58390   0.58728   0.60602   0.61343   0.62396
 Alpha virt. eigenvalues --    0.63302   0.64179   0.64624   0.64798   0.65693
 Alpha virt. eigenvalues --    0.66280   0.66622   0.67924   0.68299   0.69376
 Alpha virt. eigenvalues --    0.70118   0.70416   0.70425   0.71123   0.72064
 Alpha virt. eigenvalues --    0.72155   0.72225   0.73668   0.73846   0.74814
 Alpha virt. eigenvalues --    0.74901   0.75709   0.75762   0.76247   0.77076
 Alpha virt. eigenvalues --    0.77435   0.77819   0.78325   0.78437   0.79121
 Alpha virt. eigenvalues --    0.79475   0.80278   0.80993   0.81435   0.81694
 Alpha virt. eigenvalues --    0.82437   0.82888   0.83817   0.84489   0.84953
 Alpha virt. eigenvalues --    0.85361   0.85756   0.86665   0.86795   0.87156
 Alpha virt. eigenvalues --    0.87646   0.87756   0.88535   0.89002   0.89173
 Alpha virt. eigenvalues --    0.89569   0.90471   0.91187   0.91928   0.92125
 Alpha virt. eigenvalues --    0.93086   0.93942   0.94406   0.94694   0.95307
 Alpha virt. eigenvalues --    0.96273   0.96660   0.97133   0.97136   0.97540
 Alpha virt. eigenvalues --    0.98356   0.98740   1.00669   1.01057   1.01300
 Alpha virt. eigenvalues --    1.01545   1.02213   1.02750   1.02810   1.03705
 Alpha virt. eigenvalues --    1.04976   1.05011   1.05452   1.06416   1.07076
 Alpha virt. eigenvalues --    1.07555   1.08086   1.08401   1.09272   1.09493
 Alpha virt. eigenvalues --    1.10600   1.10715   1.11668   1.12033   1.12239
 Alpha virt. eigenvalues --    1.12691   1.13702   1.14181   1.14928   1.15051
 Alpha virt. eigenvalues --    1.17614   1.17856   1.19666   1.20210   1.21323
 Alpha virt. eigenvalues --    1.21718   1.22079   1.23303   1.24590   1.24871
 Alpha virt. eigenvalues --    1.26013   1.26963   1.27636   1.27913   1.29444
 Alpha virt. eigenvalues --    1.30674   1.30866   1.31709   1.32822   1.33100
 Alpha virt. eigenvalues --    1.34294   1.34945   1.36342   1.36477   1.37237
 Alpha virt. eigenvalues --    1.38083   1.40143   1.40503   1.41005   1.41692
 Alpha virt. eigenvalues --    1.43261   1.43965   1.44317   1.45615   1.45736
 Alpha virt. eigenvalues --    1.45907   1.46416   1.48883   1.49244   1.49280
 Alpha virt. eigenvalues --    1.49654   1.51240   1.52032   1.52775   1.53359
 Alpha virt. eigenvalues --    1.54827   1.55819   1.56041   1.56618   1.57308
 Alpha virt. eigenvalues --    1.58793   1.59740   1.59947   1.60690   1.62097
 Alpha virt. eigenvalues --    1.62221   1.63573   1.64049   1.65853   1.65914
 Alpha virt. eigenvalues --    1.67582   1.68102   1.68527   1.68685   1.68698
 Alpha virt. eigenvalues --    1.70196   1.71356   1.71880   1.73754   1.73829
 Alpha virt. eigenvalues --    1.74083   1.74944   1.77522   1.78293   1.79156
 Alpha virt. eigenvalues --    1.80366   1.81161   1.81390   1.82247   1.82821
 Alpha virt. eigenvalues --    1.84002   1.84864   1.86530   1.86828   1.88492
 Alpha virt. eigenvalues --    1.89226   1.89264   1.90348   1.91866   1.93294
 Alpha virt. eigenvalues --    1.93579   1.93692   1.94876   1.96837   1.97361
 Alpha virt. eigenvalues --    1.99649   1.99922   2.00073   2.01161   2.02107
 Alpha virt. eigenvalues --    2.03569   2.04053   2.04647   2.06111   2.06452
 Alpha virt. eigenvalues --    2.07095   2.08137   2.10901   2.11242   2.12487
 Alpha virt. eigenvalues --    2.13459   2.15195   2.15643   2.17306   2.19524
 Alpha virt. eigenvalues --    2.21778   2.22812   2.23892   2.24232   2.26651
 Alpha virt. eigenvalues --    2.27504   2.28715   2.29524   2.30478   2.33463
 Alpha virt. eigenvalues --    2.33856   2.35485   2.37168   2.37284   2.38479
 Alpha virt. eigenvalues --    2.39167   2.41171   2.42481   2.42650   2.43464
 Alpha virt. eigenvalues --    2.46292   2.46748   2.48348   2.49438   2.50914
 Alpha virt. eigenvalues --    2.54384   2.55092   2.55866   2.57541   2.58431
 Alpha virt. eigenvalues --    2.60415   2.61315   2.63801   2.64317   2.66721
 Alpha virt. eigenvalues --    2.67040   2.68347   2.71243   2.71836   2.75120
 Alpha virt. eigenvalues --    2.76456   2.76696   2.78307   2.78432   2.81226
 Alpha virt. eigenvalues --    2.83125   2.84433   2.84978   2.87399   2.88824
 Alpha virt. eigenvalues --    2.91631   2.92820   2.96286   2.96895   2.98977
 Alpha virt. eigenvalues --    2.99771   3.00738   3.02973   3.03202   3.03791
 Alpha virt. eigenvalues --    3.05843   3.05940   3.09989   3.10548   3.10680
 Alpha virt. eigenvalues --    3.13094   3.13768   3.14025   3.16707   3.16959
 Alpha virt. eigenvalues --    3.19479   3.19827   3.21541   3.22004   3.22038
 Alpha virt. eigenvalues --    3.24230   3.24339   3.26487   3.26806   3.27461
 Alpha virt. eigenvalues --    3.28176   3.28869   3.30235   3.31994   3.32383
 Alpha virt. eigenvalues --    3.33655   3.35575   3.35832   3.36457   3.38590
 Alpha virt. eigenvalues --    3.39819   3.41206   3.42186   3.42258   3.43901
 Alpha virt. eigenvalues --    3.45533   3.47737   3.47800   3.49677   3.49928
 Alpha virt. eigenvalues --    3.50364   3.51811   3.53575   3.53870   3.55135
 Alpha virt. eigenvalues --    3.55586   3.57690   3.58109   3.59921   3.60428
 Alpha virt. eigenvalues --    3.60564   3.63189   3.63890   3.64997   3.65156
 Alpha virt. eigenvalues --    3.68222   3.68369   3.69424   3.70972   3.71370
 Alpha virt. eigenvalues --    3.72744   3.73022   3.75608   3.76071   3.76870
 Alpha virt. eigenvalues --    3.80422   3.80545   3.80821   3.83206   3.83493
 Alpha virt. eigenvalues --    3.84999   3.85622   3.87462   3.87953   3.88225
 Alpha virt. eigenvalues --    3.90783   3.90841   3.91519   3.92739   3.94497
 Alpha virt. eigenvalues --    3.95369   3.96113   3.96687   3.98469   3.99208
 Alpha virt. eigenvalues --    4.00176   4.01503   4.01954   4.02591   4.03697
 Alpha virt. eigenvalues --    4.05237   4.05780   4.07244   4.08168   4.09025
 Alpha virt. eigenvalues --    4.09503   4.13190   4.14791   4.16804   4.17423
 Alpha virt. eigenvalues --    4.19297   4.20402   4.21985   4.23146   4.23556
 Alpha virt. eigenvalues --    4.24126   4.24385   4.26060   4.27747   4.30318
 Alpha virt. eigenvalues --    4.31638   4.33223   4.33753   4.35122   4.38835
 Alpha virt. eigenvalues --    4.40734   4.41152   4.41886   4.44546   4.44795
 Alpha virt. eigenvalues --    4.45440   4.46860   4.47569   4.48920   4.51946
 Alpha virt. eigenvalues --    4.56216   4.57159   4.58218   4.59308   4.60750
 Alpha virt. eigenvalues --    4.61159   4.63484   4.63659   4.66809   4.68460
 Alpha virt. eigenvalues --    4.69438   4.70571   4.70827   4.73201   4.74812
 Alpha virt. eigenvalues --    4.75741   4.76859   4.78747   4.78915   4.79318
 Alpha virt. eigenvalues --    4.83278   4.83949   4.85511   4.88655   4.91045
 Alpha virt. eigenvalues --    4.92440   4.93745   4.98187   4.99887   4.99913
 Alpha virt. eigenvalues --    5.00682   5.01238   5.02603   5.06500   5.06818
 Alpha virt. eigenvalues --    5.09182   5.09758   5.14722   5.15172   5.17270
 Alpha virt. eigenvalues --    5.21016   5.23621   5.23734   5.24545   5.31055
 Alpha virt. eigenvalues --    5.32987   5.38278   5.40613   5.42003   5.46345
 Alpha virt. eigenvalues --    5.52257   5.54459   5.56104   5.57961   5.64478
 Alpha virt. eigenvalues --    5.65403   5.73264   5.77440   5.87879   5.89701
 Alpha virt. eigenvalues --    5.93682   5.97883   6.00056   6.07795   6.12720
 Alpha virt. eigenvalues --    6.19765   6.22202   6.24514   6.24970   6.30672
 Alpha virt. eigenvalues --    6.35518   6.37711   6.39161   6.39775   6.43515
 Alpha virt. eigenvalues --    6.43826   6.48597   6.49554   6.54019   6.55853
 Alpha virt. eigenvalues --    6.59699   6.61052   6.65401   6.68877   6.71126
 Alpha virt. eigenvalues --    6.72810   6.76620   6.78556   6.83319   6.83697
 Alpha virt. eigenvalues --    6.87882   6.90346   6.91591   6.97341   7.02362
 Alpha virt. eigenvalues --    7.05994   7.08697   7.11541   7.14940   7.19940
 Alpha virt. eigenvalues --    7.30853   7.34425   7.35589   7.39021   7.44937
 Alpha virt. eigenvalues --    7.53726   7.71052   7.87257   7.91739   8.03804
 Alpha virt. eigenvalues --    8.06347  15.31886  15.76345  16.02380  16.96688
 Alpha virt. eigenvalues --   17.35494  17.91428  18.23579  19.29553  20.23439
 Alpha virt. eigenvalues --   20.40819  20.87959
          Condensed to atoms (all electrons):
               1          2          3          4          5          6
     1  C    8.504254  -0.332575   0.446641  -0.799982   0.627174  -1.314588
     2  C   -0.332575   6.966813  -0.341091   0.263492  -0.656226   0.194802
     3  C    0.446641  -0.341091   7.318750  -0.797973   0.279805  -0.478343
     4  C   -0.799982   0.263492  -0.797973   7.324505  -0.597122   0.185528
     5  C    0.627174  -0.656226   0.279805  -0.597122   8.961163  -1.047907
     6  C   -1.314588   0.194802  -0.478343   0.185528  -1.047907   7.761078
     7  C   -0.321738   0.051472   0.075360   0.200733  -0.712561  -0.386037
     8  O    0.142057  -0.055363   0.016570  -0.048175   0.119786  -0.385759
     9  O    0.002225  -0.013319   0.019349  -0.057163  -0.022100   0.013516
    10  O    0.022556  -0.017750   0.025003  -0.402954  -0.052858  -0.037486
    11  C    0.004928   0.010967  -0.042048   0.069257  -0.037528  -0.002798
    12  H    0.230390  -0.298383   0.113109  -0.076264   0.001780  -0.271663
    13  H   -0.193854   0.596172  -0.268016   0.088869  -0.064752   0.034453
    14  H    0.072608  -0.272719   0.407818  -0.226771   0.066282  -0.051613
    15  H   -0.129156   0.004826  -0.135079  -0.182458  -0.197690  -0.318000
    16  H   -0.014049   0.004711  -0.003543   0.011402  -0.028450   0.030848
    17  H   -0.002919   0.001084   0.007258  -0.010719   0.011109   0.003154
    18  H    0.001445   0.001727  -0.009348   0.016190  -0.023847   0.003292
    19  H    0.001443   0.001732  -0.009354   0.016182  -0.023831   0.003291
               7          8          9         10         11         12
     1  C   -0.321738   0.142057   0.002225   0.022556   0.004928   0.230390
     2  C    0.051472  -0.055363  -0.013319  -0.017750   0.010967  -0.298383
     3  C    0.075360   0.016570   0.019349   0.025003  -0.042048   0.113109
     4  C    0.200733  -0.048175  -0.057163  -0.402954   0.069257  -0.076264
     5  C   -0.712561   0.119786  -0.022100  -0.052858  -0.037528   0.001780
     6  C   -0.386037  -0.385759   0.013516  -0.037486  -0.002798  -0.271663
     7  C    6.766753   0.010639   0.008195  -0.030739  -0.012986   0.150124
     8  O    0.010639   9.364172  -0.138258   0.001168   0.002630  -0.009802
     9  O    0.008195  -0.138258   8.671118   0.000345   0.000569   0.002256
    10  O   -0.030739   0.001168   0.000345   9.422268   0.032817   0.003293
    11  C   -0.012986   0.002630   0.000569   0.032817   5.968548  -0.000454
    12  H    0.150124  -0.009802   0.002256   0.003293  -0.000454   0.874445
    13  H    0.008582  -0.006368  -0.000805  -0.009780  -0.000230  -0.052942
    14  H   -0.008142   0.000858   0.000896  -0.027885   0.006718  -0.001187
    15  H    0.034583   0.005067  -0.016490  -0.127555  -0.167009  -0.029296
    16  H    0.070934  -0.092117   0.133405  -0.000523  -0.000294   0.000100
    17  H    0.001265   0.000094   0.000763  -0.034344   0.368639  -0.000039
    18  H    0.000209   0.000065  -0.003541  -0.002923   0.357830  -0.000145
    19  H    0.000203   0.000066  -0.003543  -0.002936   0.357827  -0.000147
              13         14         15         16         17         18
     1  C   -0.193854   0.072608  -0.129156  -0.014049  -0.002919   0.001445
     2  C    0.596172  -0.272719   0.004826   0.004711   0.001084   0.001727
     3  C   -0.268016   0.407818  -0.135079  -0.003543   0.007258  -0.009348
     4  C    0.088869  -0.226771  -0.182458   0.011402  -0.010719   0.016190
     5  C   -0.064752   0.066282  -0.197690  -0.028450   0.011109  -0.023847
     6  C    0.034453  -0.051613  -0.318000   0.030848   0.003154   0.003292
     7  C    0.008582  -0.008142   0.034583   0.070934   0.001265   0.000209
     8  O   -0.006368   0.000858   0.005067  -0.092117   0.000094   0.000065
     9  O   -0.000805   0.000896  -0.016490   0.133405   0.000763  -0.003541
    10  O   -0.009780  -0.027885  -0.127555  -0.000523  -0.034344  -0.002923
    11  C   -0.000230   0.006718  -0.167009  -0.000294   0.368639   0.357830
    12  H   -0.052942  -0.001187  -0.029296   0.000100  -0.000039  -0.000145
    13  H    0.722993  -0.022731   0.005741   0.000426  -0.000271   0.000259
    14  H   -0.022731   0.684383  -0.014241  -0.000198   0.001197  -0.000439
    15  H    0.005741  -0.014241   2.229157  -0.011832  -0.001292  -0.039394
    16  H    0.000426  -0.000198  -0.011832   0.603059   0.000001   0.000374
    17  H   -0.000271   0.001197  -0.001292   0.000001   0.422030  -0.031430
    18  H    0.000259  -0.000439  -0.039394   0.000374  -0.031430   0.378869
    19  H    0.000260  -0.000442  -0.039405   0.000373  -0.031434   0.014712
              19
     1  C    0.001443
     2  C    0.001732
     3  C   -0.009354
     4  C    0.016182
     5  C   -0.023831
     6  C    0.003291
     7  C    0.000203
     8  O    0.000066
     9  O   -0.003543
    10  O   -0.002936
    11  C    0.357827
    12  H   -0.000147
    13  H    0.000260
    14  H   -0.000442
    15  H   -0.039405
    16  H    0.000373
    17  H   -0.031434
    18  H    0.014712
    19  H    0.378919
 Mulliken charges:
               1
     1  C   -0.946860
     2  C   -0.110370
     3  C   -0.624868
     4  C    1.023426
     5  C   -0.602225
     6  C    2.064232
     7  C    0.093152
     8  O   -0.927330
     9  O   -0.597420
    10  O   -0.759718
    11  C   -0.917382
    12  H    0.364828
    13  H    0.161993
    14  H    0.385609
    15  H    0.129524
    16  H    0.295373
    17  H    0.295854
    18  H    0.336098
    19  H    0.336084
 Sum of Mulliken charges =   0.00000
 Mulliken charges with hydrogens summed into heavy atoms:
               1
     1  C   -0.582032
     2  C    0.051623
     3  C   -0.239259
     4  C    1.023426
     5  C   -0.472701
     6  C    2.064232
     7  C    0.093152
     8  O   -0.927330
     9  O   -0.302047
    10  O   -0.759718
    11  C    0.050654
 Electronic spatial extent (au):  <R**2>=           1847.5897
 Charge=              0.0000 electrons
 Dipole moment (field-independent basis, Debye):
    X=              2.2441    Y=             -1.0960    Z=              0.0003  Tot=              2.4974
 Quadrupole moment (field-independent basis, Debye-Ang):
   XX=            -68.6222   YY=            -53.5968   ZZ=            -65.3023
   XY=              1.0160   XZ=              0.0013   YZ=              0.0001
 Traceless Quadrupole moment (field-independent basis, Debye-Ang):
   XX=             -6.1151   YY=              8.9103   ZZ=             -2.7951
   XY=              1.0160   XZ=              0.0013   YZ=              0.0001
 Octapole moment (field-independent basis, Debye-Ang**2):
  XXX=             21.2675  YYY=             -2.6647  ZZZ=              0.0003  XYY=             -3.5363
  XXY=            -35.4947  XXZ=              0.0015  XZZ=             -3.2867  YZZ=             -7.4830
  YYZ=              0.0022  XYZ=             -0.0011
 Hexadecapole moment (field-independent basis, Debye-Ang**3):
 XXXX=          -1589.0155 YYYY=           -701.1417 ZZZZ=            -74.3953 XXXY=             48.8700
 XXXZ=              0.0159 YYYX=             30.5274 YYYZ=              0.0067 ZZZX=             -0.0004
 ZZZY=              0.0000 XXYY=           -285.8344 XXZZ=           -268.7174 YYZZ=           -149.3852
 XXYZ=             -0.0030 YYXZ=             -0.0001 ZZXY=              1.6626
 N-N= 5.939440930576D+02 E-N=-2.439104339012D+03  KE= 5.333610054728D+02
 ******************************Gaussian NBO Version 3.1******************************
             N A T U R A L   A T O M I C   O R B I T A L   A N D
          N A T U R A L   B O N D   O R B I T A L   A N A L Y S I S
 ******************************Gaussian NBO Version 3.1******************************
       /RESON  / : Allow strongly delocalized NBO set

 Analyzing the SCF density

 Job title: 3-OMe_benzoic-acid                                              

 Storage needed:   1431180 in NPA,   1906877 in NBO (********** available)
 GSVD:  LWork=       11460 too small for GESVD, short by      913500 words or      913500 for optimal perf.


 NATURAL POPULATIONS:  Natural atomic orbital occupancies 
                                                          
   NAO  Atom  No  lang   Type(AO)    Occupancy      Energy
 ----------------------------------------------------------
     1    C    1  S      Cor( 1S)     1.99908     -10.37712
     2    C    1  S      Val( 2S)     0.93764      -0.17227
     3    C    1  S      Ryd( 4S)     0.00145       1.93127
     4    C    1  S      Ryd( 5S)     0.00011       2.69549
     5    C    1  S      Ryd( 3S)     0.00002       1.89969
     6    C    1  px     Val( 2p)     1.16296      -0.08092
     7    C    1  px     Ryd( 4p)     0.00467       1.93092
     8    C    1  px     Ryd( 5p)     0.00010       2.80719
     9    C    1  px     Ryd( 3p)     0.00007       0.92880
    10    C    1  py     Val( 2p)     1.06430      -0.05259
    11    C    1  py     Ryd( 4p)     0.00403       1.86280
    12    C    1  py     Ryd( 5p)     0.00004       2.35372
    13    C    1  py     Ryd( 3p)     0.00003       1.04598
    14    C    1  pz     Val( 2p)     0.95911      -0.11707
    15    C    1  pz     Ryd( 4p)     0.00089       1.04069
    16    C    1  pz     Ryd( 5p)     0.00007       1.66724
    17    C    1  pz     Ryd( 3p)     0.00004       0.58445
    18    C    1  dxy    Ryd( 3d)     0.00185       2.71531
    19    C    1  dxy    Ryd( 5d)     0.00021       4.07447
    20    C    1  dxy    Ryd( 4d)     0.00009       3.30802
    21    C    1  dxz    Ryd( 3d)     0.00038       1.46061
    22    C    1  dxz    Ryd( 5d)     0.00005       3.28665
    23    C    1  dxz    Ryd( 4d)     0.00006       1.55548
    24    C    1  dyz    Ryd( 3d)     0.00022       1.38551
    25    C    1  dyz    Ryd( 5d)     0.00010       3.22947
    26    C    1  dyz    Ryd( 4d)     0.00002       1.61844
    27    C    1  dx2y2  Ryd( 4d)     0.00187       3.49573
    28    C    1  dx2y2  Ryd( 5d)     0.00024       4.31824
    29    C    1  dx2y2  Ryd( 3d)     0.00005       2.34101
    30    C    1  dz2    Ryd( 3d)     0.00107       1.89206
    31    C    1  dz2    Ryd( 4d)     0.00012       3.98798
    32    C    1  dz2    Ryd( 5d)     0.00007       4.30145
    33    C    1  f(0)   Ryd( 4f)     0.00008       1.49040
    34    C    1  f(0)   Ryd( 5f)     0.00011       3.40685
    35    C    1  f(C1)  Ryd( 4f)     0.00048       1.94633
    36    C    1  f(C1)  Ryd( 5f)     0.00019       3.61520
    37    C    1  f(S1)  Ryd( 4f)     0.00041       1.87684
    38    C    1  f(S1)  Ryd( 5f)     0.00021       3.59398
    39    C    1  f(C2)  Ryd( 4f)     0.00023       1.47618
    40    C    1  f(C2)  Ryd( 5f)     0.00002       3.46934
    41    C    1  f(S2)  Ryd( 4f)     0.00020       1.61395
    42    C    1  f(S2)  Ryd( 5f)     0.00004       3.41110
    43    C    1  f(C3)  Ryd( 4f)     0.00111       1.97869
    44    C    1  f(C3)  Ryd( 5f)     0.00022       4.28352
    45    C    1  f(S3)  Ryd( 4f)     0.00041       2.85920
    46    C    1  f(S3)  Ryd( 5f)     0.00016       3.99992
 
    47    C    2  S      Cor( 1S)     1.99911     -10.37971
    48    C    2  S      Val( 2S)     0.94501      -0.18876
    49    C    2  S      Ryd( 3S)     0.00135       1.87414
    50    C    2  S      Ryd( 5S)     0.00006       2.56678
    51    C    2  S      Ryd( 4S)     0.00002       2.38792
    52    C    2  px     Val( 2p)     1.05752      -0.06476
    53    C    2  px     Ryd( 5p)     0.00384       1.75323
    54    C    2  px     Ryd( 3p)     0.00004       1.19606
    55    C    2  px     Ryd( 4p)     0.00001       1.24449
    56    C    2  py     Val( 2p)     1.18228      -0.08637
    57    C    2  py     Ryd( 4p)     0.00456       1.73757
    58    C    2  py     Ryd( 5p)     0.00004       1.95119
    59    C    2  py     Ryd( 3p)     0.00003       1.55188
    60    C    2  pz     Val( 2p)     0.99444      -0.12406
    61    C    2  pz     Ryd( 4p)     0.00056       1.02479
    62    C    2  pz     Ryd( 5p)     0.00001       1.27751
    63    C    2  pz     Ryd( 3p)     0.00004       0.98398
    64    C    2  dxy    Ryd( 5d)     0.00232       3.66130
    65    C    2  dxy    Ryd( 4d)     0.00028       3.65415
    66    C    2  dxy    Ryd( 3d)     0.00006       2.30772
    67    C    2  dxz    Ryd( 3d)     0.00063       1.61017
    68    C    2  dxz    Ryd( 5d)     0.00001       2.66453
    69    C    2  dxz    Ryd( 4d)     0.00001       2.00346
    70    C    2  dyz    Ryd( 3d)     0.00028       1.50160
    71    C    2  dyz    Ryd( 5d)     0.00006       2.72468
    72    C    2  dyz    Ryd( 4d)     0.00002       1.75801
    73    C    2  dx2y2  Ryd( 3d)     0.00177       2.44554
    74    C    2  dx2y2  Ryd( 5d)     0.00013       3.68272
    75    C    2  dx2y2  Ryd( 4d)     0.00006       2.98111
    76    C    2  dz2    Ryd( 3d)     0.00098       1.87160
    77    C    2  dz2    Ryd( 5d)     0.00008       4.08712
    78    C    2  dz2    Ryd( 4d)     0.00009       3.30620
    79    C    2  f(0)   Ryd( 5f)     0.00012       3.49046
    80    C    2  f(0)   Ryd( 4f)     0.00001       2.31974
    81    C    2  f(C1)  Ryd( 5f)     0.00032       3.78524
    82    C    2  f(C1)  Ryd( 4f)     0.00000       2.98536
    83    C    2  f(S1)  Ryd( 5f)     0.00016       3.67827
    84    C    2  f(S1)  Ryd( 4f)     0.00003       2.79552
    85    C    2  f(C2)  Ryd( 5f)     0.00002       3.69864
    86    C    2  f(C2)  Ryd( 4f)     0.00001       2.38920
    87    C    2  f(S2)  Ryd( 5f)     0.00001       3.58230
    88    C    2  f(S2)  Ryd( 4f)     0.00001       2.57837
    89    C    2  f(C3)  Ryd( 5f)     0.00014       4.42124
    90    C    2  f(C3)  Ryd( 4f)     0.00006       4.24860
    91    C    2  f(S3)  Ryd( 4f)     0.00012       4.21875
    92    C    2  f(S3)  Ryd( 5f)     0.00003       6.08009
 
    93    C    3  S      Cor( 1S)     1.99903     -10.38134
    94    C    3  S      Val( 2S)     0.94995      -0.19152
    95    C    3  S      Ryd( 3S)     0.00134       1.89080
    96    C    3  S      Ryd( 5S)     0.00012       2.92288
    97    C    3  S      Ryd( 4S)     0.00002       1.91133
    98    C    3  px     Val( 2p)     1.16032      -0.08861
    99    C    3  px     Ryd( 4p)     0.00519       1.87001
   100    C    3  px     Ryd( 5p)     0.00012       2.32117
   101    C    3  px     Ryd( 3p)     0.00005       1.19101
   102    C    3  py     Val( 2p)     1.08650      -0.07755
   103    C    3  py     Ryd( 4p)     0.00372       1.86237
   104    C    3  py     Ryd( 5p)     0.00007       2.20169
   105    C    3  py     Ryd( 3p)     0.00002       1.16350
   106    C    3  pz     Val( 2p)     0.98540      -0.12560
   107    C    3  pz     Ryd( 4p)     0.00068       1.02258
   108    C    3  pz     Ryd( 5p)     0.00007       1.41112
   109    C    3  pz     Ryd( 3p)     0.00004       0.79340
   110    C    3  dxy    Ryd( 3d)     0.00167       2.32287
   111    C    3  dxy    Ryd( 5d)     0.00022       4.05770
   112    C    3  dxy    Ryd( 4d)     0.00010       2.76294
   113    C    3  dxz    Ryd( 3d)     0.00041       1.41023
   114    C    3  dxz    Ryd( 5d)     0.00003       3.37968
   115    C    3  dxz    Ryd( 4d)     0.00006       1.41674
   116    C    3  dyz    Ryd( 3d)     0.00049       1.42839
   117    C    3  dyz    Ryd( 5d)     0.00002       3.33378
   118    C    3  dyz    Ryd( 4d)     0.00005       1.43399
   119    C    3  dx2y2  Ryd( 4d)     0.00279       3.51123
   120    C    3  dx2y2  Ryd( 5d)     0.00016       4.37789
   121    C    3  dx2y2  Ryd( 3d)     0.00005       2.01504
   122    C    3  dz2    Ryd( 3d)     0.00135       1.89603
   123    C    3  dz2    Ryd( 4d)     0.00013       4.04607
   124    C    3  dz2    Ryd( 5d)     0.00006       4.07922
   125    C    3  f(0)   Ryd( 4f)     0.00027       1.73410
   126    C    3  f(0)   Ryd( 5f)     0.00009       3.14784
   127    C    3  f(C1)  Ryd( 4f)     0.00057       2.16400
   128    C    3  f(C1)  Ryd( 5f)     0.00010       3.38032
   129    C    3  f(S1)  Ryd( 4f)     0.00049       2.08332
   130    C    3  f(S1)  Ryd( 5f)     0.00015       3.28824
   131    C    3  f(C2)  Ryd( 4f)     0.00005       1.72897
   132    C    3  f(C2)  Ryd( 5f)     0.00004       3.16917
   133    C    3  f(S2)  Ryd( 4f)     0.00015       1.92429
   134    C    3  f(S2)  Ryd( 5f)     0.00009       3.06435
   135    C    3  f(C3)  Ryd( 4f)     0.00064       2.27805
   136    C    3  f(C3)  Ryd( 5f)     0.00034       3.69597
   137    C    3  f(S3)  Ryd( 4f)     0.00058       2.84334
   138    C    3  f(S3)  Ryd( 5f)     0.00015       3.77262
 
   139    C    4  S      Cor( 1S)     1.99855     -10.45537
   140    C    4  S      Val( 2S)     0.82841      -0.12260
   141    C    4  S      Ryd( 3S)     0.00115       2.11114
   142    C    4  S      Ryd( 4S)     0.00010       2.31439
   143    C    4  S      Ryd( 5S)     0.00001       2.39205
   144    C    4  px     Val( 2p)     0.84539      -0.04199
   145    C    4  px     Ryd( 4p)     0.00594       1.79262
   146    C    4  px     Ryd( 5p)     0.00011       1.81686
   147    C    4  px     Ryd( 3p)     0.00003       1.47591
   148    C    4  py     Val( 2p)     1.03105      -0.08135
   149    C    4  py     Ryd( 5p)     0.00332       1.84349
   150    C    4  py     Ryd( 4p)     0.00006       1.64133
   151    C    4  py     Ryd( 3p)     0.00003       1.55824
   152    C    4  pz     Val( 2p)     0.97670      -0.13112
   153    C    4  pz     Ryd( 4p)     0.00079       0.98679
   154    C    4  pz     Ryd( 5p)     0.00021       1.18769
   155    C    4  pz     Ryd( 3p)     0.00002       0.93324
   156    C    4  dxy    Ryd( 3d)     0.00110       3.05478
   157    C    4  dxy    Ryd( 4d)     0.00018       3.38136
   158    C    4  dxy    Ryd( 5d)     0.00005       4.29804
   159    C    4  dxz    Ryd( 3d)     0.00276       1.41017
   160    C    4  dxz    Ryd( 4d)     0.00006       2.52819
   161    C    4  dxz    Ryd( 5d)     0.00007       2.62389
   162    C    4  dyz    Ryd( 3d)     0.00073       1.55868
   163    C    4  dyz    Ryd( 4d)     0.00008       2.47456
   164    C    4  dyz    Ryd( 5d)     0.00002       2.75502
   165    C    4  dx2y2  Ryd( 3d)     0.00187       3.00429
   166    C    4  dx2y2  Ryd( 4d)     0.00028       3.43889
   167    C    4  dx2y2  Ryd( 5d)     0.00008       4.73543
   168    C    4  dz2    Ryd( 3d)     0.00072       1.86082
   169    C    4  dz2    Ryd( 5d)     0.00039       3.76717
   170    C    4  dz2    Ryd( 4d)     0.00005       3.55604
   171    C    4  f(0)   Ryd( 4f)     0.00001       1.49145
   172    C    4  f(0)   Ryd( 5f)     0.00020       3.68116
   173    C    4  f(C1)  Ryd( 4f)     0.00052       1.80628
   174    C    4  f(C1)  Ryd( 5f)     0.00024       3.83589
   175    C    4  f(S1)  Ryd( 4f)     0.00055       1.72086
   176    C    4  f(S1)  Ryd( 5f)     0.00027       3.81671
   177    C    4  f(C2)  Ryd( 4f)     0.00055       1.37022
   178    C    4  f(C2)  Ryd( 5f)     0.00003       3.73371
   179    C    4  f(S2)  Ryd( 4f)     0.00032       1.35959
   180    C    4  f(S2)  Ryd( 5f)     0.00004       3.74263
   181    C    4  f(C3)  Ryd( 4f)     0.00242       2.26379
   182    C    4  f(C3)  Ryd( 5f)     0.00011       4.82849
   183    C    4  f(S3)  Ryd( 4f)     0.00045       3.08211
   184    C    4  f(S3)  Ryd( 5f)     0.00008       4.42544
 
   185    C    5  S      Cor( 1S)     1.99901     -10.38559
   186    C    5  S      Val( 2S)     0.93749      -0.17172
   187    C    5  S      Ryd( 3S)     0.00097       1.86236
   188    C    5  S      Ryd( 5S)     0.00014       2.54568
   189    C    5  S      Ryd( 4S)     0.00002       2.22571
   190    C    5  px     Val( 2p)     1.05670      -0.06907
   191    C    5  px     Ryd( 4p)     0.00235       2.11249
   192    C    5  px     Ryd( 5p)     0.00008       3.02806
   193    C    5  px     Ryd( 3p)     0.00004       0.99942
   194    C    5  py     Val( 2p)     1.18779      -0.09661
   195    C    5  py     Ryd( 4p)     0.00367       1.96406
   196    C    5  py     Ryd( 5p)     0.00009       3.26408
   197    C    5  py     Ryd( 3p)     0.00007       1.08066
   198    C    5  pz     Val( 2p)     1.01576      -0.13390
   199    C    5  pz     Ryd( 4p)     0.00102       1.03622
   200    C    5  pz     Ryd( 5p)     0.00014       1.88735
   201    C    5  pz     Ryd( 3p)     0.00003       0.61155
   202    C    5  dxy    Ryd( 3d)     0.00180       3.50776
   203    C    5  dxy    Ryd( 4d)     0.00033       3.68250
   204    C    5  dxy    Ryd( 5d)     0.00007       3.77728
   205    C    5  dxz    Ryd( 3d)     0.00096       1.46910
   206    C    5  dxz    Ryd( 5d)     0.00005       2.98184
   207    C    5  dxz    Ryd( 4d)     0.00001       2.57039
   208    C    5  dyz    Ryd( 3d)     0.00042       1.22463
   209    C    5  dyz    Ryd( 5d)     0.00013       2.98284
   210    C    5  dyz    Ryd( 4d)     0.00009       2.35473
   211    C    5  dx2y2  Ryd( 3d)     0.00146       2.18714
   212    C    5  dx2y2  Ryd( 4d)     0.00008       3.71974
   213    C    5  dx2y2  Ryd( 5d)     0.00008       4.91861
   214    C    5  dz2    Ryd( 3d)     0.00085       1.48544
   215    C    5  dz2    Ryd( 4d)     0.00017       3.92857
   216    C    5  dz2    Ryd( 5d)     0.00005       4.32096
   217    C    5  f(0)   Ryd( 4f)     0.00042       1.51288
   218    C    5  f(0)   Ryd( 5f)     0.00012       3.44538
   219    C    5  f(C1)  Ryd( 4f)     0.00042       2.19631
   220    C    5  f(C1)  Ryd( 5f)     0.00027       3.67808
   221    C    5  f(S1)  Ryd( 4f)     0.00063       1.92155
   222    C    5  f(S1)  Ryd( 5f)     0.00016       3.58153
   223    C    5  f(C2)  Ryd( 4f)     0.00013       1.55928
   224    C    5  f(C2)  Ryd( 5f)     0.00006       3.46624
   225    C    5  f(S2)  Ryd( 4f)     0.00035       1.49545
   226    C    5  f(S2)  Ryd( 5f)     0.00004       3.49515
   227    C    5  f(C3)  Ryd( 4f)     0.00103       2.07563
   228    C    5  f(C3)  Ryd( 5f)     0.00028       4.49137
   229    C    5  f(S3)  Ryd( 4f)     0.00049       3.64810
   230    C    5  f(S3)  Ryd( 5f)     0.00019       4.25003
 
   231    C    6  S      Cor( 1S)     1.99884     -10.37199
   232    C    6  S      Val( 2S)     0.88331      -0.11391
   233    C    6  S      Ryd( 3S)     0.00116       2.10777
   234    C    6  S      Ryd( 4S)     0.00010       2.57061
   235    C    6  S      Ryd( 5S)     0.00003       3.67886
   236    C    6  px     Val( 2p)     1.10134      -0.10335
   237    C    6  px     Ryd( 5p)     0.00569       2.32891
   238    C    6  px     Ryd( 4p)     0.00008       2.32453
   239    C    6  px     Ryd( 3p)     0.00005       0.94899
   240    C    6  py     Val( 2p)     1.13232      -0.10425
   241    C    6  py     Ryd( 4p)     0.00534       2.20373
   242    C    6  py     Ryd( 5p)     0.00010       2.29474
   243    C    6  py     Ryd( 3p)     0.00003       1.21355
   244    C    6  pz     Val( 2p)     1.06780      -0.13445
   245    C    6  pz     Ryd( 4p)     0.00121       0.96879
   246    C    6  pz     Ryd( 5p)     0.00013       1.93592
   247    C    6  pz     Ryd( 3p)     0.00002       0.63254
   248    C    6  dxy    Ryd( 3d)     0.00243       2.83798
   249    C    6  dxy    Ryd( 4d)     0.00021       3.73979
   250    C    6  dxy    Ryd( 5d)     0.00003       5.30915
   251    C    6  dxz    Ryd( 3d)     0.00039       1.39467
   252    C    6  dxz    Ryd( 5d)     0.00013       2.98848
   253    C    6  dxz    Ryd( 4d)     0.00013       2.39093
   254    C    6  dyz    Ryd( 3d)     0.00049       1.32614
   255    C    6  dyz    Ryd( 5d)     0.00009       2.94687
   256    C    6  dyz    Ryd( 4d)     0.00004       2.57324
   257    C    6  dx2y2  Ryd( 3d)     0.00096       2.94453
   258    C    6  dx2y2  Ryd( 4d)     0.00038       3.72861
   259    C    6  dx2y2  Ryd( 5d)     0.00008       5.45066
   260    C    6  dz2    Ryd( 3d)     0.00108       1.59743
   261    C    6  dz2    Ryd( 5d)     0.00020       4.07936
   262    C    6  dz2    Ryd( 4d)     0.00005       3.78682
   263    C    6  f(0)   Ryd( 4f)     0.00048       1.58968
   264    C    6  f(0)   Ryd( 5f)     0.00024       3.46937
   265    C    6  f(C1)  Ryd( 4f)     0.00052       2.03931
   266    C    6  f(C1)  Ryd( 5f)     0.00046       3.64878
   267    C    6  f(S1)  Ryd( 4f)     0.00075       1.99061
   268    C    6  f(S1)  Ryd( 5f)     0.00035       3.65976
   269    C    6  f(C2)  Ryd( 4f)     0.00064       1.49646
   270    C    6  f(C2)  Ryd( 5f)     0.00004       3.47900
   271    C    6  f(S2)  Ryd( 4f)     0.00092       1.55412
   272    C    6  f(S2)  Ryd( 5f)     0.00006       3.44081
   273    C    6  f(C3)  Ryd( 4f)     0.00207       2.55908
   274    C    6  f(C3)  Ryd( 5f)     0.00029       4.30291
   275    C    6  f(S3)  Ryd( 4f)     0.00108       3.19271
   276    C    6  f(S3)  Ryd( 5f)     0.00009       4.62801
 
   277    C    7  S      Cor( 1S)     1.99907     -10.53273
   278    C    7  S      Val( 2S)     0.77981      -0.09743
   279    C    7  S      Ryd( 4S)     0.00367       2.03419
   280    C    7  S      Ryd( 3S)     0.00020       1.96874
   281    C    7  S      Ryd( 5S)     0.00007       2.36495
   282    C    7  px     Val( 2p)     0.88198      -0.02923
   283    C    7  px     Ryd( 4p)     0.01128       1.57335
   284    C    7  px     Ryd( 3p)     0.00023       0.85825
   285    C    7  px     Ryd( 5p)     0.00004       1.81316
   286    C    7  py     Val( 2p)     0.75992      -0.03418
   287    C    7  py     Ryd( 4p)     0.00762       1.62902
   288    C    7  py     Ryd( 3p)     0.00012       0.84726
   289    C    7  py     Ryd( 5p)     0.00007       2.14351
   290    C    7  pz     Val( 2p)     0.75484      -0.12132
   291    C    7  pz     Ryd( 4p)     0.00059       1.12871
   292    C    7  pz     Ryd( 3p)     0.00007       0.51371
   293    C    7  pz     Ryd( 5p)     0.00002       1.28056
   294    C    7  dxy    Ryd( 5d)     0.00116       4.24461
   295    C    7  dxy    Ryd( 4d)     0.00008       3.46939
   296    C    7  dxy    Ryd( 3d)     0.00004       2.93442
   297    C    7  dxz    Ryd( 5d)     0.00082       3.43486
   298    C    7  dxz    Ryd( 4d)     0.00006       2.02696
   299    C    7  dxz    Ryd( 3d)     0.00006       1.87365
   300    C    7  dyz    Ryd( 5d)     0.00106       3.24718
   301    C    7  dyz    Ryd( 4d)     0.00005       2.11615
   302    C    7  dyz    Ryd( 3d)     0.00002       1.96199
   303    C    7  dx2y2  Ryd( 5d)     0.00111       4.30106
   304    C    7  dx2y2  Ryd( 3d)     0.00007       3.11321
   305    C    7  dx2y2  Ryd( 4d)     0.00004       3.34138
   306    C    7  dz2    Ryd( 5d)     0.00018       4.48001
   307    C    7  dz2    Ryd( 4d)     0.00019       3.53830
   308    C    7  dz2    Ryd( 3d)     0.00007       3.08477
   309    C    7  f(0)   Ryd( 5f)     0.00011       3.31857
   310    C    7  f(0)   Ryd( 4f)     0.00003       2.68818
   311    C    7  f(C1)  Ryd( 5f)     0.00015       3.65502
   312    C    7  f(C1)  Ryd( 4f)     0.00002       3.60513
   313    C    7  f(S1)  Ryd( 5f)     0.00009       3.63462
   314    C    7  f(S1)  Ryd( 4f)     0.00003       3.30958
   315    C    7  f(C2)  Ryd( 5f)     0.00003       3.43598
   316    C    7  f(C2)  Ryd( 4f)     0.00001       3.04289
   317    C    7  f(S2)  Ryd( 5f)     0.00001       3.29995
   318    C    7  f(S2)  Ryd( 4f)     0.00009       2.82605
   319    C    7  f(C3)  Ryd( 5f)     0.00009       4.33147
   320    C    7  f(C3)  Ryd( 4f)     0.00004       4.28984
   321    C    7  f(S3)  Ryd( 4f)     0.00006       4.66544
   322    C    7  f(S3)  Ryd( 5f)     0.00003       8.37239
 
   323    O    8  S      Cor( 1S)     1.99979     -19.32092
   324    O    8  S      Val( 2S)     1.70589      -0.99566
   325    O    8  S      Ryd( 4S)     0.00061       3.14875
   326    O    8  S      Ryd( 3S)     0.00023       1.37575
   327    O    8  S      Ryd( 5S)     0.00001       8.60810
   328    O    8  px     Val( 2p)     1.58928      -0.32865
   329    O    8  px     Ryd( 4p)     0.00059       1.40115
   330    O    8  px     Ryd( 3p)     0.00009       0.56860
   331    O    8  px     Ryd( 5p)     0.00007       5.54011
   332    O    8  py     Val( 2p)     1.82815      -0.33913
   333    O    8  py     Ryd( 4p)     0.00191       1.16308
   334    O    8  py     Ryd( 3p)     0.00014       0.62495
   335    O    8  py     Ryd( 5p)     0.00001       4.80110
   336    O    8  pz     Val( 2p)     1.45745      -0.28505
   337    O    8  pz     Ryd( 4p)     0.00078       0.88698
   338    O    8  pz     Ryd( 3p)     0.00004       0.49958
   339    O    8  pz     Ryd( 5p)     0.00000       4.19708
   340    O    8  dxy    Ryd( 3d)     0.00682       1.92757
   341    O    8  dxy    Ryd( 4d)     0.00010       2.52517
   342    O    8  dxy    Ryd( 5d)     0.00003       6.61268
   343    O    8  dxz    Ryd( 3d)     0.00567       1.54153
   344    O    8  dxz    Ryd( 4d)     0.00002       1.68356
   345    O    8  dxz    Ryd( 5d)     0.00003       6.49035
   346    O    8  dyz    Ryd( 3d)     0.00138       1.40802
   347    O    8  dyz    Ryd( 4d)     0.00004       1.63147
   348    O    8  dyz    Ryd( 5d)     0.00001       6.49974
   349    O    8  dx2y2  Ryd( 3d)     0.00678       1.96230
   350    O    8  dx2y2  Ryd( 4d)     0.00011       2.61672
   351    O    8  dx2y2  Ryd( 5d)     0.00004       6.60860
   352    O    8  dz2    Ryd( 3d)     0.00279       1.63908
   353    O    8  dz2    Ryd( 4d)     0.00010       2.46630
   354    O    8  dz2    Ryd( 5d)     0.00001       6.61156
   355    O    8  f(0)   Ryd( 4f)     0.00013       3.13359
   356    O    8  f(0)   Ryd( 5f)     0.00000       5.51471
   357    O    8  f(C1)  Ryd( 4f)     0.00015       3.65042
   358    O    8  f(C1)  Ryd( 5f)     0.00001       5.79994
   359    O    8  f(S1)  Ryd( 4f)     0.00004       3.16946
   360    O    8  f(S1)  Ryd( 5f)     0.00001       5.57598
   361    O    8  f(C2)  Ryd( 4f)     0.00017       3.12595
   362    O    8  f(C2)  Ryd( 5f)     0.00001       5.66273
   363    O    8  f(S2)  Ryd( 4f)     0.00022       3.15979
   364    O    8  f(S2)  Ryd( 5f)     0.00002       5.65848
   365    O    8  f(C3)  Ryd( 4f)     0.00047       3.64109
   366    O    8  f(C3)  Ryd( 5f)     0.00002       5.96869
   367    O    8  f(S3)  Ryd( 4f)     0.00035       3.90036
   368    O    8  f(S3)  Ryd( 5f)     0.00001       6.06872
 
   369    O    9  S      Cor( 1S)     1.99978     -19.45411
   370    O    9  S      Val( 2S)     1.67666      -1.03078
   371    O    9  S      Ryd( 3S)     0.00037       1.43257
   372    O    9  S      Ryd( 4S)     0.00012       2.66249
   373    O    9  S      Ryd( 5S)     0.00001       9.43321
   374    O    9  px     Val( 2p)     1.65789      -0.38593
   375    O    9  px     Ryd( 4p)     0.00053       1.13872
   376    O    9  px     Ryd( 3p)     0.00015       0.76269
   377    O    9  px     Ryd( 5p)     0.00005       5.03258
   378    O    9  py     Val( 2p)     1.50390      -0.36909
   379    O    9  py     Ryd( 4p)     0.00102       1.03421
   380    O    9  py     Ryd( 3p)     0.00012       0.47635
   381    O    9  py     Ryd( 5p)     0.00005       5.32476
   382    O    9  pz     Val( 2p)     1.84762      -0.40910
   383    O    9  pz     Ryd( 4p)     0.00122       0.75306
   384    O    9  pz     Ryd( 3p)     0.00002       0.52253
   385    O    9  pz     Ryd( 5p)     0.00001       4.14461
   386    O    9  dxy    Ryd( 3d)     0.00285       1.63390
   387    O    9  dxy    Ryd( 4d)     0.00008       2.19597
   388    O    9  dxy    Ryd( 5d)     0.00006       6.75795
   389    O    9  dxz    Ryd( 3d)     0.00272       1.09205
   390    O    9  dxz    Ryd( 4d)     0.00004       1.89972
   391    O    9  dxz    Ryd( 5d)     0.00001       6.48221
   392    O    9  dyz    Ryd( 3d)     0.00245       1.35273
   393    O    9  dyz    Ryd( 4d)     0.00005       1.75486
   394    O    9  dyz    Ryd( 5d)     0.00004       6.53639
   395    O    9  dx2y2  Ryd( 3d)     0.00718       2.09385
   396    O    9  dx2y2  Ryd( 4d)     0.00017       2.44804
   397    O    9  dx2y2  Ryd( 5d)     0.00004       6.92925
   398    O    9  dz2    Ryd( 3d)     0.00300       1.51068
   399    O    9  dz2    Ryd( 4d)     0.00015       2.43219
   400    O    9  dz2    Ryd( 5d)     0.00001       6.74419
   401    O    9  f(0)   Ryd( 4f)     0.00054       2.77635
   402    O    9  f(0)   Ryd( 5f)     0.00001       5.94174
   403    O    9  f(C1)  Ryd( 4f)     0.00017       3.16913
   404    O    9  f(C1)  Ryd( 5f)     0.00001       6.21339
   405    O    9  f(S1)  Ryd( 4f)     0.00024       3.52504
   406    O    9  f(S1)  Ryd( 5f)     0.00001       6.13958
   407    O    9  f(C2)  Ryd( 4f)     0.00004       2.91221
   408    O    9  f(C2)  Ryd( 5f)     0.00001       5.98672
   409    O    9  f(S2)  Ryd( 4f)     0.00010       2.77402
   410    O    9  f(S2)  Ryd( 5f)     0.00001       6.08639
   411    O    9  f(C3)  Ryd( 4f)     0.00006       3.70565
   412    O    9  f(C3)  Ryd( 5f)     0.00002       6.43818
   413    O    9  f(S3)  Ryd( 4f)     0.00010       4.53505
   414    O    9  f(S3)  Ryd( 5f)     0.00005       6.56945
 
   415    O   10  S      Cor( 1S)     1.99975     -19.46477
   416    O   10  S      Val( 2S)     1.58745      -0.95768
   417    O   10  S      Ryd( 4S)     0.00222       2.37781
   418    O   10  S      Ryd( 3S)     0.00022       1.86159
   419    O   10  S      Ryd( 5S)     0.00002      10.87312
   420    O   10  px     Val( 2p)     1.58553      -0.37182
   421    O   10  px     Ryd( 3p)     0.00271       1.33309
   422    O   10  px     Ryd( 4p)     0.00009       1.42990
   423    O   10  px     Ryd( 5p)     0.00003       4.65009
   424    O   10  py     Val( 2p)     1.46362      -0.35055
   425    O   10  py     Ryd( 4p)     0.00141       1.70578
   426    O   10  py     Ryd( 3p)     0.00020       1.64420
   427    O   10  py     Ryd( 5p)     0.00006       4.50527
   428    O   10  pz     Val( 2p)     1.86291      -0.39702
   429    O   10  pz     Ryd( 3p)     0.00359       0.97029
   430    O   10  pz     Ryd( 4p)     0.00004       1.37158
   431    O   10  pz     Ryd( 5p)     0.00001       3.56947
   432    O   10  dxy    Ryd( 3d)     0.00254       1.94203
   433    O   10  dxy    Ryd( 4d)     0.00022       2.95305
   434    O   10  dxy    Ryd( 5d)     0.00005       6.55585
   435    O   10  dxz    Ryd( 3d)     0.00183       1.37959
   436    O   10  dxz    Ryd( 4d)     0.00008       2.36229
   437    O   10  dxz    Ryd( 5d)     0.00005       6.13003
   438    O   10  dyz    Ryd( 3d)     0.00142       1.46710
   439    O   10  dyz    Ryd( 4d)     0.00025       2.38334
   440    O   10  dyz    Ryd( 5d)     0.00001       6.26645
   441    O   10  dx2y2  Ryd( 3d)     0.00422       2.50782
   442    O   10  dx2y2  Ryd( 4d)     0.00015       3.22372
   443    O   10  dx2y2  Ryd( 5d)     0.00006       6.62142
   444    O   10  dz2    Ryd( 3d)     0.00267       1.68893
   445    O   10  dz2    Ryd( 4d)     0.00011       2.64184
   446    O   10  dz2    Ryd( 5d)     0.00002       6.47879
   447    O   10  f(0)   Ryd( 4f)     0.00047       2.79636
   448    O   10  f(0)   Ryd( 5f)     0.00002       6.17619
   449    O   10  f(C1)  Ryd( 4f)     0.00010       3.88203
   450    O   10  f(C1)  Ryd( 5f)     0.00002       6.39648
   451    O   10  f(S1)  Ryd( 4f)     0.00017       3.84524
   452    O   10  f(S1)  Ryd( 5f)     0.00003       6.45018
   453    O   10  f(C2)  Ryd( 4f)     0.00006       2.92594
   454    O   10  f(C2)  Ryd( 5f)     0.00002       6.35194
   455    O   10  f(S2)  Ryd( 4f)     0.00009       2.86654
   456    O   10  f(S2)  Ryd( 5f)     0.00002       6.40079
   457    O   10  f(C3)  Ryd( 4f)     0.00006       3.68272
   458    O   10  f(C3)  Ryd( 5f)     0.00007       6.63839
   459    O   10  f(S3)  Ryd( 4f)     0.00010       5.09769
   460    O   10  f(S3)  Ryd( 5f)     0.00007       6.78763
 
   461    C   11  S      Cor( 1S)     1.99943     -10.48318
   462    C   11  S      Val( 2S)     1.09314      -0.32899
   463    C   11  S      Ryd( 3S)     0.00179       1.03753
   464    C   11  S      Ryd( 5S)     0.00018       4.53502
   465    C   11  S      Ryd( 4S)     0.00006       2.71084
   466    C   11  px     Val( 2p)     1.19712      -0.14354
   467    C   11  px     Ryd( 4p)     0.00176       1.17661
   468    C   11  px     Ryd( 5p)     0.00014       2.37370
   469    C   11  px     Ryd( 3p)     0.00006       0.96430
   470    C   11  py     Val( 2p)     0.73929      -0.07403
   471    C   11  py     Ryd( 4p)     0.00365       0.98919
   472    C   11  py     Ryd( 5p)     0.00018       2.09783
   473    C   11  py     Ryd( 3p)     0.00006       0.59862
   474    C   11  pz     Val( 2p)     1.18071      -0.13731
   475    C   11  pz     Ryd( 4p)     0.00029       1.05288
   476    C   11  pz     Ryd( 5p)     0.00021       1.96212
   477    C   11  pz     Ryd( 3p)     0.00001       0.57479
   478    C   11  dxy    Ryd( 4d)     0.00060       3.23704
   479    C   11  dxy    Ryd( 3d)     0.00003       1.25059
   480    C   11  dxy    Ryd( 5d)     0.00002       3.52817
   481    C   11  dxz    Ryd( 5d)     0.00048       3.33714
   482    C   11  dxz    Ryd( 3d)     0.00016       1.29932
   483    C   11  dxz    Ryd( 4d)     0.00004       3.14791
   484    C   11  dyz    Ryd( 5d)     0.00136       3.19642
   485    C   11  dyz    Ryd( 3d)     0.00017       1.14207
   486    C   11  dyz    Ryd( 4d)     0.00002       3.15869
   487    C   11  dx2y2  Ryd( 5d)     0.00070       3.95965
   488    C   11  dx2y2  Ryd( 3d)     0.00013       1.26544
   489    C   11  dx2y2  Ryd( 4d)     0.00003       3.43930
   490    C   11  dz2    Ryd( 5d)     0.00063       3.59596
   491    C   11  dz2    Ryd( 3d)     0.00013       1.23836
   492    C   11  dz2    Ryd( 4d)     0.00001       3.37516
   493    C   11  f(0)   Ryd( 4f)     0.00003       2.18449
   494    C   11  f(0)   Ryd( 5f)     0.00001       3.55495
   495    C   11  f(C1)  Ryd( 4f)     0.00010       2.81444
   496    C   11  f(C1)  Ryd( 5f)     0.00007       3.72993
   497    C   11  f(S1)  Ryd( 4f)     0.00015       2.92705
   498    C   11  f(S1)  Ryd( 5f)     0.00007       3.78096
   499    C   11  f(C2)  Ryd( 4f)     0.00007       2.29390
   500    C   11  f(C2)  Ryd( 5f)     0.00003       3.51046
   501    C   11  f(S2)  Ryd( 4f)     0.00014       2.54647
   502    C   11  f(S2)  Ryd( 5f)     0.00000       3.55871
   503    C   11  f(C3)  Ryd( 4f)     0.00011       2.56375
   504    C   11  f(C3)  Ryd( 5f)     0.00005       3.61036
   505    C   11  f(S3)  Ryd( 4f)     0.00006       2.75949
   506    C   11  f(S3)  Ryd( 5f)     0.00006       3.70713
 
   507    H   12  S      Val( 1S)     0.76107       0.05617
   508    H   12  S      Ryd( 4S)     0.00041       1.96734
   509    H   12  S      Ryd( 2S)     0.00014       0.73920
   510    H   12  S      Ryd( 3S)     0.00004       1.63132
   511    H   12  px     Ryd( 2p)     0.00069       0.96523
   512    H   12  px     Ryd( 3p)     0.00020       4.17356
   513    H   12  px     Ryd( 4p)     0.00005       4.22102
   514    H   12  py     Ryd( 2p)     0.00055       0.92944
   515    H   12  py     Ryd( 4p)     0.00007       4.18381
   516    H   12  py     Ryd( 3p)     0.00010       3.39789
   517    H   12  pz     Ryd( 2p)     0.00029       0.61849
   518    H   12  pz     Ryd( 4p)     0.00002       3.95281
   519    H   12  pz     Ryd( 3p)     0.00007       2.10652
   520    H   12  dxy    Ryd( 3d)     0.00008       2.34398
   521    H   12  dxy    Ryd( 4d)     0.00004       4.49524
   522    H   12  dxz    Ryd( 3d)     0.00002       1.69960
   523    H   12  dxz    Ryd( 4d)     0.00001       3.91866
   524    H   12  dyz    Ryd( 3d)     0.00003       1.63260
   525    H   12  dyz    Ryd( 4d)     0.00002       3.73037
   526    H   12  dx2y2  Ryd( 3d)     0.00005       2.05797
   527    H   12  dx2y2  Ryd( 4d)     0.00002       4.50657
   528    H   12  dz2    Ryd( 3d)     0.00004       2.21324
   529    H   12  dz2    Ryd( 4d)     0.00002       4.21358
 
   530    H   13  S      Val( 1S)     0.78112       0.03828
   531    H   13  S      Ryd( 4S)     0.00034       1.96925
   532    H   13  S      Ryd( 2S)     0.00016       0.80625
   533    H   13  S      Ryd( 3S)     0.00002       1.36899
   534    H   13  px     Ryd( 2p)     0.00024       1.14679
   535    H   13  px     Ryd( 4p)     0.00006       3.81095
   536    H   13  px     Ryd( 3p)     0.00008       2.26635
   537    H   13  py     Ryd( 2p)     0.00095       1.13034
   538    H   13  py     Ryd( 4p)     0.00010       5.00549
   539    H   13  py     Ryd( 3p)     0.00003       3.41550
   540    H   13  pz     Ryd( 2p)     0.00022       0.91805
   541    H   13  pz     Ryd( 4p)     0.00008       3.41659
   542    H   13  pz     Ryd( 3p)     0.00002       1.87853
   543    H   13  dxy    Ryd( 3d)     0.00001       1.95132
   544    H   13  dxy    Ryd( 4d)     0.00002       4.53191
   545    H   13  dxz    Ryd( 3d)     0.00001       1.58007
   546    H   13  dxz    Ryd( 4d)     0.00000       3.52143
   547    H   13  dyz    Ryd( 3d)     0.00001       1.75692
   548    H   13  dyz    Ryd( 4d)     0.00001       4.00034
   549    H   13  dx2y2  Ryd( 3d)     0.00014       2.14602
   550    H   13  dx2y2  Ryd( 4d)     0.00003       4.39538
   551    H   13  dz2    Ryd( 3d)     0.00002       1.92154
   552    H   13  dz2    Ryd( 4d)     0.00002       3.81943
 
   553    H   14  S      Val( 1S)     0.77607       0.03467
   554    H   14  S      Ryd( 4S)     0.00041       2.04328
   555    H   14  S      Ryd( 2S)     0.00011       0.71935
   556    H   14  S      Ryd( 3S)     0.00002       1.53933
   557    H   14  px     Ryd( 2p)     0.00183       0.91380
   558    H   14  px     Ryd( 3p)     0.00018       4.16726
   559    H   14  px     Ryd( 4p)     0.00004       4.20929
   560    H   14  py     Ryd( 2p)     0.00053       0.87485
   561    H   14  py     Ryd( 4p)     0.00007       4.17164
   562    H   14  py     Ryd( 3p)     0.00006       3.32402
   563    H   14  pz     Ryd( 2p)     0.00039       0.59798
   564    H   14  pz     Ryd( 4p)     0.00002       3.94747
   565    H   14  pz     Ryd( 3p)     0.00003       2.07913
   566    H   14  dxy    Ryd( 3d)     0.00010       2.28395
   567    H   14  dxy    Ryd( 4d)     0.00003       4.45469
   568    H   14  dxz    Ryd( 3d)     0.00001       1.73441
   569    H   14  dxz    Ryd( 4d)     0.00002       3.83506
   570    H   14  dyz    Ryd( 3d)     0.00001       1.62786
   571    H   14  dyz    Ryd( 4d)     0.00001       3.68633
   572    H   14  dx2y2  Ryd( 3d)     0.00004       2.03025
   573    H   14  dx2y2  Ryd( 4d)     0.00003       4.43143
   574    H   14  dz2    Ryd( 3d)     0.00003       2.17450
   575    H   14  dz2    Ryd( 4d)     0.00001       4.16718
 
   576    H   15  S      Val( 1S)     0.76471       0.03813
   577    H   15  S      Ryd( 4S)     0.00049       1.90922
   578    H   15  S      Ryd( 2S)     0.00013       0.77559
   579    H   15  S      Ryd( 3S)     0.00006       1.89244
   580    H   15  px     Ryd( 2p)     0.00087       1.27345
   581    H   15  px     Ryd( 4p)     0.00006       4.24399
   582    H   15  px     Ryd( 3p)     0.00006       2.95233
   583    H   15  py     Ryd( 2p)     0.00078       0.92262
   584    H   15  py     Ryd( 3p)     0.00022       4.29147
   585    H   15  py     Ryd( 4p)     0.00005       5.06397
   586    H   15  pz     Ryd( 2p)     0.00059       0.55170
[...]
 0.02888097,-0.03420753,-0.03057244,0.02962971,0.03450315,-0.02649214,-
 0.12315755,-0.07239665,-0.02065019,0.36207183,-0.02305252,-0.03422780,
 -0.05225633,-0.04635753,0.03805073,0.04766716,-0.04820503,-0.07702390,
 -0.17793613,0.02379997,0.26112146,0.51443691,-0.05469207,-0.02971486,-
 0.04561616,-0.03486335,0.02629269,0.03188560,0.05834126,-0.00741151,-0
 .00488500,-0.14155305,-0.00627675,-0.01543927,0.71660746,0.00349488,0.
 02810487,0.02738690,0.02072386,-0.01894470,-0.01972965,-0.03618434,-0.
 00837923,-0.02382730,0.04003932,-0.16003206,-0.11808457,-0.00302910,0.
 34151646,-0.00139797,0.02417087,0.03983807,0.02447111,-0.01919040,-0.0
 2580134,-0.04319581,-0.02104076,-0.02531503,0.04623079,-0.12257024,-0.
 22715664,0.05277934,0.28132858,0.50970506,-0.25172760,-0.03504403,-0.0
 6458572,0.05536242,-0.04037790,-0.04907028,-0.06865360,-0.00606993,-0.
 01436920,0.01639856,0.05785387,0.07842393,-0.31214236,0.02240186,0.005
 45649,0.72326070,-0.07535584,-0.11360865,-0.06983418,-0.00526165,-0.01
 242355,-0.02625421,-0.00803931,-0.00411689,-0.00129014,0.02198668,-0.0
 0334712,-0.00502408,0.06142671,-0.09082697,-0.03442639,-0.01263802,0.3
 3124962,-0.11826045,-0.06593000,-0.16587897,-0.00231321,-0.02965523,-0
 .03279768,-0.01699171,-0.00109949,-0.00684208,0.03066684,-0.00155073,0
 .00293106,0.05741782,-0.03820559,-0.10581306,0.03885106,0.24229319,0.4
 7473238,0.01784670,-0.00999575,-0.01178676,-0.00259625,-0.00482934,-0.
 00744778,-0.00493308,-0.00038634,-0.00087158,-0.00564880,0.00202434,0.
 00136546,-0.00340208,0.01853439,0.02432687,-0.09921748,0.00837663,0.00
 966605,0.94695340,-0.00444591,-0.01006415,-0.01666619,-0.00273662,0.00
 575856,-0.00313174,-0.00118421,-0.00010401,0.00140436,0.00446895,0.007
 01295,-0.00099216,0.01045579,-0.00428300,-0.00498967,0.01593507,-0.127
 47913,-0.05652874,-0.12695209,0.39474092,-0.00439767,-0.01720353,-0.02
 120292,-0.00466130,-0.00333436,0.00302035,-0.00193402,0.00148155,0.000
 54053,0.00462049,-0.00122881,0.00689441,0.01357085,-0.00420721,-0.0040
 6264,0.01973050,-0.05726250,-0.15819645,-0.09835236,0.22428182,0.50618
 091,-0.00582427,-0.00340518,-0.00512343,0.00039103,0.00096861,0.001398
 62,-0.00000879,0.00000857,-0.00000489,0.00107374,0.00097995,0.00155106
 ,0.00416588,0.00098189,0.00147203,-0.02338196,0.02018007,0.02253697,-0
 .65970282,0.16353551,0.16161825,0.79386151,0.00188097,-0.00016620,-0.0
 0038619,0.00039126,0.00007957,0.00112091,0.00137614,-0.00014880,-0.000
 27730,-0.00077660,-0.00162211,-0.00027828,-0.00292251,-0.00063479,-0.0
 0441184,0.03077971,0.00452244,-0.01944135,0.15799394,-0.14022126,-0.06
 480370,-0.18136596,0.10878897,0.00191528,-0.00089813,-0.00074964,0.000
 62988,0.00117682,0.00089404,0.00181600,-0.00040972,-0.00021013,-0.0007
 8771,-0.00010816,-0.00168987,-0.00372677,-0.00403384,-0.00326585,0.036
 65008,-0.02046721,-0.00234105,0.15424029,-0.06426748,-0.15069872,-0.16
 787869,0.08237883,0.12716160,0.00060108,0.00116184,0.00147492,0.001283
 18,0.00018733,0.00042135,0.00065243,-0.00000855,0.00004115,-0.00056040
 ,-0.00061205,-0.00079075,-0.00347912,0.00119315,0.00119618,0.00489074,
 -0.00338051,-0.00518978,-0.20289304,-0.02820163,-0.05083721,-0.1104368
 7,-0.01369546,-0.03182159,0.41952400,0.00420983,-0.00077084,-0.0024090
 6,-0.00055566,-0.00116203,-0.00094594,-0.00030176,-0.00021993,-0.00046
 837,-0.00215404,0.00007963,0.00097591,-0.00011191,-0.00156676,-0.00286
 228,-0.02102646,-0.00503910,-0.02472121,-0.04443931,-0.10938317,-0.062
 42274,-0.00730322,0.03260572,0.00299305,-0.04582151,0.26468683,0.00553
 350,-0.00270433,-0.00172022,-0.00056798,-0.00087405,-0.00171069,-0.000
 34923,-0.00043997,-0.00050976,-0.00284399,0.00112525,0.00041281,-0.000
 54169,-0.00273592,-0.00312059,-0.02868555,-0.02301131,-0.02142164,-0.0
 7245914,-0.06085014,-0.15377870,-0.02330965,0.00237392,0.03072995,-0.0
 2409010,0.29695137,0.43140679,-0.00505303,0.00487406,0.00610758,0.0070
 3170,-0.00501434,-0.00643354,-0.06695853,0.00795798,0.00341647,-0.2729
 5733,0.06598028,0.06588646,-0.02049289,0.01383540,0.01550500,-0.001040
 59,-0.00018896,-0.00101296,-0.00197790,-0.00447215,-0.00617644,-0.0006
 6588,0.00222504,0.00292747,0.00213479,0.00216069,0.00307382,0.58377274
 ,0.00211272,-0.00005405,0.00160619,-0.00108557,0.00043370,-0.00555393,
 -0.01275393,0.01209709,0.00532382,0.04284693,-0.08525025,-0.04786916,0
 .03008428,-0.00188573,-0.01240568,-0.00417231,0.00270309,-0.00588589,0
 .00085149,0.00050488,0.00034093,0.00038946,-0.00069918,-0.00049091,-0.
 00003240,-0.00012611,-0.00030833,-0.00237749,0.16936327,0.00243104,0.0
 0187420,0.00162423,-0.00120169,-0.00593463,-0.00349252,-0.02416133,0.0
 0732932,0.01458970,0.03508965,-0.04562910,-0.10353296,0.03714190,-0.01
 398013,-0.00539647,-0.00631767,-0.00550040,-0.00111515,0.00091214,-0.0
 0017461,0.00016659,0.00048332,-0.00031313,-0.00067232,0.00015359,-0.00
 009596,-0.00000982,0.04639956,0.12964532,0.24891014,0.00154971,-0.0002
 7529,-0.00023745,-0.00126514,-0.00073459,-0.00125120,0.00121006,0.0026
 6702,0.00340255,-0.05561810,-0.00932564,-0.01736535,0.00309863,-0.0003
 8620,-0.00008314,-0.00115667,-0.00138877,-0.00201843,0.00098664,0.0015
 8431,0.00221249,0.00018204,-0.00078258,-0.00102669,-0.00083846,-0.0007
 9784,-0.00112651,-0.16690875,-0.03305325,-0.05426876,0.55849999,0.0008
 2464,0.00018083,0.00003178,0.00038694,0.00103017,-0.00065910,0.0029228
 2,0.00102802,-0.00200652,0.00364430,0.00273459,0.00996443,0.00528227,-
 0.00130456,0.00057387,-0.00049254,0.00009844,-0.00070620,0.00058220,0.
 00074973,0.00115669,-0.00005358,-0.00032577,-0.00047065,-0.00053683,-0
 .00053137,-0.00052499,-0.05329261,-0.09599983,-0.05189108,-0.04487589,
 0.57455491,0.00122690,-0.00007493,0.00023602,0.00024188,-0.00076766,0.
 00055473,0.00374227,-0.00203128,0.00040583,-0.00009864,0.00870853,0.00
 709993,0.00746345,0.00002532,-0.00059538,-0.00082484,-0.00079287,-0.00
 054256,0.00087809,0.00125363,0.00167764,-0.00005603,-0.00054119,-0.000
 70222,-0.00077887,-0.00055020,-0.00098419,-0.08121238,-0.04993146,-0.1
 3523765,-0.06151946,-0.00736402,0.56106558,-0.31948039,0.06457192,0.05
 873067,0.00028202,-0.00025127,-0.00066600,0.00152808,0.00051594,0.0001
 9934,0.00014562,-0.00018828,-0.00019837,-0.00099717,-0.00202597,-0.003
 35841,-0.01833746,0.00603170,0.00588259,-0.00273995,0.00089043,0.00133
 934,0.00210135,0.00071696,0.00117758,0.00059967,-0.00003956,-0.0000040
 5,0.00040575,-0.00004943,0.00002019,-0.00014514,-0.00006412,-0.0000690
 8,0.33697462,0.06584728,-0.06130933,-0.02444687,0.01728628,0.00032965,
 -0.00281910,0.00050674,0.00225095,-0.00569213,-0.00029435,-0.00084929,
 -0.00063364,-0.00164421,0.00284273,-0.00413215,-0.01067067,0.00695964,
 0.00311121,-0.00167420,-0.00256228,0.00218805,0.00067398,-0.00077338,-
 0.00069697,0.00080747,0.00028559,0.00032831,-0.00010248,-0.00016882,0.
 00040730,-0.00001329,-0.00018689,0.00016722,-0.07034706,0.05448162,0.0
 6042889,-0.02457031,-0.06502141,0.02268496,-0.00451766,-0.00011386,0.0
 0018709,-0.00569126,-0.00099686,-0.00033952,-0.00062335,-0.00125767,-0
 .00285013,-0.00416909,-0.00000056,-0.01635637,0.00472874,0.00855895,-0
 .00207548,0.00243653,-0.00128423,0.00112039,-0.00069280,-0.00101487,0.
 00112374,0.00024623,0.00053450,-0.00005050,0.00041242,0.00006207,-0.00
 000143,0.00016229,-0.00009749,-0.06361347,0.03021364,0.06074089,0.0094
 0055,0.00348607,0.00513890,-0.21177787,-0.07720042,-0.11939433,-0.0170
 7344,-0.01218602,-0.01829924,-0.00320896,0.00232674,0.00202262,-0.0005
 5084,0.00060322,0.00081194,0.00119214,0.00147800,0.00143006,0.00041898
 ,0.00021329,0.00029695,0.00000830,-0.00007638,-0.00010589,-0.00002972,
 0.00007943,0.00011801,-0.00155380,-0.00070711,-0.00110056,-0.00004172,
 0.00026167,0.00036739,0.00048616,-0.00053640,-0.00029107,0.22175642,-0
 .01469161,-0.00219015,-0.01001937,-0.07738519,-0.08756892,-0.07037701,
 0.00616058,0.00682120,0.00390217,0.00214319,0.00501972,-0.00362072,0.0
 0068564,-0.00055964,0.00017490,0.00179030,0.00228446,-0.00576671,-0.00
 103956,0.00036314,0.00000322,0.00025988,-0.00006899,-0.00013539,0.0000
 0097,-0.00042476,-0.00035764,0.00020582,0.00027689,0.00026927,0.000098
 74,-0.00019106,0.00007271,0.00000156,-0.00205767,0.00243034,0.08249287
 ,0.08144061,-0.01906442,-0.00825887,-0.00857670,-0.11964033,-0.0703591
 1,-0.14561066,0.00612904,0.00212531,0.00776204,0.00177824,-0.00360295,
 0.00326986,0.00092167,0.00016694,-0.00032960,0.00184589,-0.00579699,-0
 .00079406,-0.00137121,0.00012454,0.00031818,0.00034184,-0.00016795,-0.
 00013894,0.00001353,-0.00035003,-0.00062087,0.00011491,0.00018089,0.00
 034156,0.00015048,0.00008846,-0.00010612,0.00042521,0.00237824,-0.0006
 7507,0.12871108,0.08063301,0.14670915,-0.00531256,0.00133114,0.0005334
 0,-0.00086057,0.01782720,0.02327410,-0.07401559,0.04083100,0.05089644,
 0.00955727,-0.01370943,-0.01794978,-0.00327713,-0.00150379,-0.00280953
 ,-0.00149011,-0.00021278,-0.00038983,-0.00037846,-0.00001488,0.0000259
 9,0.00026262,0.00005009,0.00008737,0.00018424,0.00000642,0.00001979,0.
 00163654,0.00031365,0.00089762,-0.00011820,-0.00002782,0.00000844,-0.0
 0002704,0.00078083,0.00103852,0.00107284,-0.00057371,-0.00024077,0.072
 22429,0.00143929,0.00533486,-0.00271787,0.00017028,0.00051196,-0.00451
 557,0.03960841,-0.14721514,-0.14132963,0.00504446,-0.00169200,-0.01030
 839,-0.00180801,0.00272937,-0.00327582,-0.00050641,0.00010773,0.000614
 07,-0.00005404,-0.00063113,0.00028818,-0.00000647,0.00002135,-0.000037
 68,0.00004125,0.00001410,-0.00006811,0.00059188,-0.00163916,0.00229556
 ,-0.00023666,-0.00031621,0.00033808,-0.00009618,-0.00010820,-0.0001330
 3,-0.00006671,-0.00252836,0.00239061,-0.04448794,0.14583368,0.00067743
 ,-0.00272831,0.00391367,-0.00023583,-0.00280560,0.00015729,0.04926866,
 -0.14121123,-0.22143966,0.00702061,-0.01212465,-0.00904697,-0.00321459
 ,-0.00324631,0.00042439,-0.00078076,0.00064250,0.00038956,-0.00002614,
 0.00029199,-0.00046525,0.00001206,-0.00003219,0.00000747,0.00006615,-0
 .00007149,-0.00002053,0.00126805,0.00226861,-0.00017678,-0.00026962,0.
 00035827,-0.00013635,-0.00012920,-0.00004810,-0.00009185,0.00043429,0.
 00234151,-0.00116890,-0.05466812,0.15649100,0.22813837,-0.00422819,0.0
 0255984,0.00239440,-0.00006736,0.00042016,0.00064461,0.00019821,0.0015
 2867,0.00146024,0.01056792,0.00220294,0.00348304,-0.20775015,-0.079849
 61,-0.12306174,-0.01683504,-0.01211948,-0.01795614,-0.00191038,-0.0017
 3915,-0.00210645,0.00105559,0.00020315,0.00031384,0.00121035,0.0002431
 8,0.00042374,-0.00151903,-0.00111369,-0.00133162,-0.00261771,0.0017437
 8,0.00211309,-0.00076484,-0.00061848,-0.00098369,0.00000614,-0.0000992
 0,-0.00004892,0.00036272,0.00026239,0.00042159,0.22458814,0.00236264,0
 .00406471,-0.00266934,0.00081329,-0.00097176,0.00004548,0.00151500,0.0
 0199471,-0.00536848,-0.01401788,-0.00105753,-0.00927774,-0.08051266,-0
 .08691632,-0.07708222,0.00423431,0.00536547,0.00496056,0.00024342,-0.0
 0202665,0.00274594,-0.00046854,0.00040273,-0.00031871,0.00092799,-0.00
 161291,-0.00229573,-0.00025560,-0.00121885,0.00245250,-0.00015775,-0.0
 0068436,-0.00031495,0.00036319,0.00077838,-0.00011280,-0.00008082,-0.0
 0053939,0.00040908,-0.00071501,-0.00048018,-0.00019836,0.08492516,0.08
 320117,0.00213182,-0.00265024,0.00291901,0.00116803,0.00000743,-0.0008
 2374,0.00144208,-0.00536712,-0.00086974,-0.01811459,-0.00770677,-0.007
 12504,-0.12394483,-0.07701782,-0.14943392,0.00381898,0.00337664,0.0068
 1373,0.00053338,0.00255396,-0.00061898,-0.00058050,-0.00025368,0.00021
 402,0.00133552,-0.00236205,-0.00283705,-0.00018907,0.00236936,0.000057
 05,-0.00041915,-0.00013095,-0.00067410,0.00032337,-0.00020785,0.000644
 05,-0.00002446,0.00040730,-0.00031256,-0.00087978,-0.00010369,-0.00060
 647,0.13244711,0.08626895,0.15228149,0.00070690,-0.00056205,-0.0007263
 5,-0.00028746,-0.00020954,-0.00027337,-0.00026240,0.00008679,0.0000882
 3,0.00061362,0.00003058,0.00008370,-0.00052397,0.00034942,0.00043457,-
 0.00503200,-0.00109413,-0.00237323,0.01946066,-0.02694454,-0.03439944,
 -0.00301289,0.00382456,0.00536037,-0.11306326,0.11571548,0.14461684,-0
 .00036534,0.00001118,-0.00001774,0.00012646,0.00007235,0.00010087,-0.0
 0004759,-0.00003444,-0.00006880,0.00003326,-0.00006481,-0.00007636,0.0
 0002625,0.00001161,0.00002068,0.00056262,0.00004754,0.00013277,0.10107
 723,0.00035549,0.00002232,-0.00057460,-0.00033558,-0.00021653,0.000139
 08,-0.00003298,0.00006850,0.00006178,0.00035424,0.00007780,-0.00008833
 ,-0.00026210,0.00023188,0.00055921,-0.00216650,0.00323995,-0.00179204,
 0.00092254,-0.01220362,-0.02175196,0.00465176,-0.00187497,0.00564612,0
 .08788121,-0.17699759,-0.20668774,-0.00028626,0.00002769,0.00004703,0.
 00009473,0.00008036,0.00001014,-0.00007035,0.00008308,-0.00014822,0.00
 002680,-0.00006412,0.00000943,0.00000368,-0.00001188,0.00002153,0.0001
 0339,-0.00009283,0.00009250,-0.09123344,0.18766508,0.00049537,-0.00066
 350,-0.00035579,-0.00044127,0.00015129,-0.00018666,-0.00007121,0.00007
 339,0.00011053,0.00051466,-0.00011969,0.00006038,-0.00037970,0.0006184
 7,0.00057956,-0.00380115,-0.00168792,0.00181229,0.00270673,-0.02445189
 ,-0.02809653,0.00646159,0.00556610,0.00226032,0.10755463,-0.20399135,-
 0.27658380,-0.00041378,0.00007584,0.00003245,0.00013068,0.00000797,0.0
 0010289,-0.00011662,-0.00014473,-0.00001474,0.00004562,0.00000055,-0.0
 0006410,0.00001013,0.00002229,0.00000289,0.00020715,0.00008709,-0.0000
 1874,-0.11289641,0.22445432,0.30039424,-0.00004689,0.00003101,0.000042
 03,-0.00009818,-0.00024902,-0.00034184,-0.00119990,0.00052125,0.000553
 87,0.00019819,-0.00270828,-0.00363162,0.00017690,-0.00034144,-0.000475
 81,-0.00000721,0.00018322,0.00022216,-0.00003329,-0.00022880,-0.000310
 68,-0.00007699,0.00011165,0.00014202,0.00008177,0.00010129,0.00014029,
 -0.03464461,0.00696806,0.00588372,-0.23110047,0.08475995,0.09552608,0.
 00001061,0.00000298,0.00000865,-0.00012035,0.00002703,0.00002896,-0.00
 000718,-0.00002384,-0.00003456,0.00026605,0.00001065,0.00008225,-0.000
 01469,-0.00001625,-0.00002276,0.26409935,0.00011202,0.00002881,0.00012
 168,0.00006497,-0.00017128,-0.00023159,-0.00068954,0.00038420,0.000114
 84,-0.00164805,-0.00056132,-0.00153526,0.00004401,-0.00019435,-0.00078
 117,-0.00007997,0.00032348,0.00013250,-0.00015059,0.00003026,-0.000012
 89,0.00006939,-0.00002024,-0.00000904,0.00005314,0.00000211,-0.0000265
 0,-0.01700727,0.00537225,0.00494760,0.09344197,-0.09278372,-0.04524423
 ,0.00001905,-0.00000906,0.00004013,-0.00005364,-0.00001634,0.00003686,
 0.00001201,0.00000705,-0.00001899,0.00034938,-0.00006042,0.00053589,0.
 00000784,0.00000857,0.00001628,-0.09070621,0.09239923,0.00014984,0.000
 11377,0.00011158,0.00007621,-0.00026190,-0.00033401,-0.00105809,0.0002
 3210,0.00045432,-0.00222117,-0.00163805,-0.00192349,0.00003726,-0.0008
 1839,-0.00069063,-0.00012819,0.00015800,0.00041605,-0.00020653,-0.0000
 2046,-0.00001826,0.00008575,-0.00000495,-0.00000669,0.00007617,-0.0000
 2184,0.00000418,-0.02603724,0.00726770,0.00757713,0.10708579,-0.046084
 42,-0.10300962,0.00003005,0.00003857,0.00001646,-0.00007842,0.00004467
 ,0.00000395,0.00001315,-0.00002247,-0.00000644,0.00053319,0.00050306,0
 .00028401,0.00000931,0.00001394,0.00001638,-0.09979903,0.05120088,0.10
 586819,0.00026744,0.00061666,0.00084798,0.00086086,-0.00031457,-0.0007
 9503,-0.00174956,0.00034479,-0.00071393,0.00609501,-0.00325843,-0.0007
 3948,0.00064158,0.00049400,0.00083121,-0.00099919,0.00045332,-0.000383
 21,-0.00014082,-0.00014539,-0.00008508,0.00001466,0.00004101,0.0000396
 4,0.00008203,0.00004849,0.00001038,-0.01215019,-0.03333975,-0.00613079
 ,-0.05135307,0.00816847,0.00125460,-0.00000024,-0.00006829,0.00008429,
 -0.00001363,-0.00005288,0.00002605,0.00007439,-0.00006643,0.00018230,-
 0.00164994,-0.00079341,0.00130207,0.00000101,0.00000596,0.00000829,0.0
 0259033,0.02602124,-0.00262727,0.05651302,-0.00023926,-0.00001631,0.00
 007266,0.00021652,0.00008817,0.00001851,-0.00079693,-0.00000339,0.0000
 3326,0.00360672,-0.00032807,-0.00101715,-0.00057415,-0.00027998,-0.000
 72094,0.00027029,0.00014883,0.00045067,-0.00028034,-0.00016362,-0.0002
 6508,0.00008843,0.00007721,0.00009586,0.00016402,0.00011669,0.00013192
 ,-0.01253955,-0.00967971,-0.00786388,0.00163917,-0.30796780,0.01532401
 ,0.00005288,0.00002396,0.00001708,-0.00004725,-0.00000398,0.00000682,0
 .00008967,-0.00000054,0.00011287,0.00052274,0.00059769,0.00028279,-0.0
 0001205,-0.00001568,0.00000172,0.00064097,-0.00958345,0.00187403,0.005
 31142,0.33601989,-0.00022599,0.00006553,0.00010735,0.00009490,0.000110
 28,-0.00009415,-0.00043699,0.00018218,-0.00035663,0.00279810,-0.000696
 08,-0.00016558,-0.00006450,0.00094018,0.00057406,-0.00004529,-0.000144
 11,-0.00015305,0.00019309,-0.00006996,-0.00010094,-0.00016644,0.000080
 66,0.00009124,-0.00008550,0.00001208,0.00006568,-0.00902624,-0.0253676
 2,-0.00232469,0.00141447,0.01792277,-0.05219574,-0.00001850,-0.0000225
 4,-0.00000840,-0.00003047,-0.00002138,0.00000669,0.00002336,-0.0000675
 8,0.00010002,0.00054813,0.00016724,-0.00052999,-0.00000426,-0.00001189
 ,-0.00003164,0.00000213,-0.01428127,0.00150059,0.00491088,-0.00925062,
 0.05346212,0.00027155,0.00061183,0.00084794,0.00080930,-0.00075584,-0.
 00046523,-0.00176721,-0.00064587,0.00001517,0.00613056,-0.00027924,-0.
 00288652,0.00069247,0.00066906,0.00086690,-0.00108328,-0.00043687,0.00
 021541,-0.00009203,-0.00001799,-0.00015422,-0.00000624,0.00002499,0.00
 004752,0.00005659,-0.00001353,0.00004152,-0.00869363,0.00510717,-0.034
 88256,-0.05449011,-0.00930601,0.03163623,0.00000594,0.00009831,-0.0000
 4607,-0.00000446,0.00004039,-0.00004491,0.00008567,0.00018311,-0.00001
 300,-0.00147511,0.00155849,-0.00056500,0.00000161,0.00000366,0.0000080
 4,-0.00007344,-0.00985975,0.02405919,0.00091630,0.00188670,0.00011911,
 0.05871552,-0.00017490,0.00001760,-0.00000135,-0.00005971,-0.00004649,
 0.00009633,-0.00007047,-0.00030798,0.00005466,0.00115502,0.00015203,-0
 .00013138,-0.00000362,0.00038278,0.00108214,-0.00002068,-0.00016174,-0
 .00027902,0.00027261,-0.00003843,0.00000641,-0.00018453,0.00005771,0.0
 0005323,-0.00012943,0.00004390,-0.00002600,-0.00229445,0.00594282,-0.0
 1788518,-0.00749818,-0.08016548,0.08171317,-0.00003139,-0.00001068,-0.
 00002891,-0.00001335,0.00000738,-0.00001429,-0.00000033,0.00006270,-0.
 00004305,0.00047482,-0.00074368,-0.00009464,-0.00000234,-0.00002799,-0
 .00001622,0.00091577,0.00484423,-0.01257423,-0.00346620,-0.00902991,0.
 03045215,0.01113138,0.07902120,-0.00026527,0.00016473,0.00006926,0.000
 27865,-0.00011422,0.00009197,-0.00101542,-0.00003933,-0.00003444,0.004
 62489,-0.00125563,-0.00068187,-0.00055527,-0.00041055,-0.00013943,0.00
 018810,0.00029326,0.00024173,-0.00022511,-0.00020379,-0.00027500,0.000
 03776,0.00008413,0.00013167,0.00013688,0.00009386,0.00016395,-0.014147
 16,-0.00167808,-0.02140256,0.02519073,0.07957140,-0.27686120,0.0000453
 7,0.00001154,0.00002009,-0.00005241,0.00001856,-0.00001384,0.00010951,
 0.00014004,0.00002554,0.00049841,-0.00000157,0.00063697,-0.00001138,-0
 .00000029,-0.00001993,0.00198414,0.00499429,-0.01026371,0.00197711,0.0
 0069547,0.00005306,-0.01879953,-0.08236380,0.30825773\\-0.00004290,-0.
 00013628,-0.00018523,-0.00006704,0.00009432,0.00011895,0.00005965,0.00
 000472,0.00001192,-0.00001345,-0.00004853,-0.00006691,-0.00002889,0.00
 002147,0.00002622,0.00013250,0.00000627,0.00002364,-0.00017149,0.00002
 289,0.00000507,0.00008942,-0.00000768,0.00000178,0.00002561,0.00003250
 ,0.00004841,-0.00002298,0.00000414,0.00000463,0.00003147,-0.00001519,-
 0.00001785,0.00001255,0.00003099,0.00004244,0.00000740,-0.00000741,-0.
 00000913,0.00000524,-0.00000247,-0.00000284,-0.00000319,0.00000299,0.0
 0000374,0.00001710,-0.00001682,-0.00002070,-0.00002147,-0.00000609,-0.
 00001031,-0.00000449,0.00001525,0.00000930,-0.00000503,0.00000494,0.00
 001687\\\@
 The archive entry for this job was punched.


 MYSTERY IS THE WISDOM OF BLOCKHEADS... HORACE WALPOLE 
 Job cpu time:       0 days 23 hours 32 minutes 17.3 seconds.
 Elapsed time:       0 days  0 hours 35 minutes 19.4 seconds.
 File lengths (MBytes):  RWF=    588 Int=      0 D2E=      0 Chk=     43 Scr=      1
 Normal termination of Gaussian 16 at Tue Sep  6 17:14:51 2022.
