 Entering Gaussian System, Link 0=g16
 Initial command:
 /usr/local/gaussian16c01/g16/l1.exe "/scr/dhuang/Gau-47107.inp" -scrdir="/scr/dhuang/"
 Entering Link 1 = /usr/local/gaussian16c01/g16/l1.exe PID=     47108.
  
 Copyright (c) 1988-2019, Gaussian, Inc.  All Rights Reserved.
  
 This is part of the Gaussian(R) 16 program.  It is based on
 the Gaussian(R) 09 system (copyright 2009, Gaussian, Inc.),
 the Gaussian(R) 03 system (copyright 2003, Gaussian, Inc.),
 the Gaussian(R) 98 system (copyright 1998, Gaussian, Inc.),
 the Gaussian(R) 94 system (copyright 1995, Gaussian, Inc.),
 the Gaussian 92(TM) system (copyright 1992, Gaussian, Inc.),
 the Gaussian 90(TM) system (copyright 1990, Gaussian, Inc.),
 the Gaussian 88(TM) system (copyright 1988, Gaussian, Inc.),
 the Gaussian 86(TM) system (copyright 1986, Carnegie Mellon
 University), and the Gaussian 82(TM) system (copyright 1983,
 Carnegie Mellon University). Gaussian is a federally registered
 trademark of Gaussian, Inc.
  
 This software contains proprietary and confidential information,
 including trade secrets, belonging to Gaussian, Inc.
  
 This software is provided under written license and may be
 used, copied, transmitted, or stored only in accord with that
 written license.
  
 The following legend is applicable only to US Government
 contracts under FAR:
  
                    RESTRICTED RIGHTS LEGEND
  
 Use, reproduction and disclosure by the US Government is
 subject to restrictions as set forth in subparagraphs (a)
 and (c) of the Commercial Computer Software - Restricted
 Rights clause in FAR 52.227-19.
  
 Gaussian, Inc.
 340 Quinnipiac St., Bldg. 40, Wallingford CT 06492
  
  
 ---------------------------------------------------------------
 Warning -- This program may not be used in any manner that
 competes with the business of Gaussian, Inc. or will provide
 assistance to any competitor of Gaussian, Inc.  The licensee
 of this program is prohibited from giving any competitor of
 Gaussian, Inc. access to this program.  By using this program,
 the user acknowledges that Gaussian, Inc. is engaged in the
 business of creating and licensing software in the field of
 computational chemistry and represents and warrants to the
 licensee that it is not a competitor of Gaussian, Inc. and that
 it will not use this program in any manner prohibited above.
 ---------------------------------------------------------------
  

 Cite this work as:
 Gaussian 16, Revision C.01,
 M. J. Frisch, G. W. Trucks, H. B. Schlegel, G. E. Scuseria, 
 M. A. Robb, J. R. Cheeseman, G. Scalmani, V. Barone, 
 G. A. Petersson, H. Nakatsuji, X. Li, M. Caricato, A. V. Marenich, 
 J. Bloino, B. G. Janesko, R. Gomperts, B. Mennucci, H. P. Hratchian, 
 J. V. Ortiz, A. F. Izmaylov, J. L. Sonnenberg, D. Williams-Young, 
 F. Ding, F. Lipparini, F. Egidi, J. Goings, B. Peng, A. Petrone, 
 T. Henderson, D. Ranasinghe, V. G. Zakrzewski, J. Gao, N. Rega, 
 G. Zheng, W. Liang, M. Hada, M. Ehara, K. Toyota, R. Fukuda, 
 J. Hasegawa, M. Ishida, T. Nakajima, Y. Honda, O. Kitao, H. Nakai, 
 T. Vreven, K. Throssell, J. A. Montgomery, Jr., J. E. Peralta, 
 F. Ogliaro, M. J. Bearpark, J. J. Heyd, E. N. Brothers, K. N. Kudin, 
 V. N. Staroverov, T. A. Keith, R. Kobayashi, J. Normand, 
 K. Raghavachari, A. P. Rendell, J. C. Burant, S. S. Iyengar, 
 J. Tomasi, M. Cossi, J. M. Millam, M. Klene, C. Adamo, R. Cammi, 
 J. W. Ochterski, R. L. Martin, K. Morokuma, O. Farkas, 
 J. B. Foresman, and D. J. Fox, Gaussian, Inc., Wallingford CT, 2019.
 
 ******************************************
 Gaussian 16:  ES64L-G16RevC.01  3-Jul-2019
                 5-Sep-2022 
 ******************************************
 %nprocshared=40
 Will use up to   40 processors via shared memory.
 %mem=10000MW
 %chk=4-CF3.chk
 ------------------------------------
 # opt freq M062x/aug-cc-pvtz pop=nbo
 ------------------------------------
 1/18=20,19=15,26=3,38=1/1,3;
 2/9=110,12=2,17=6,18=5,40=1/2;
 3/5=16,6=1,7=10,11=2,25=1,30=1,71=1,74=-55/1,2,3;
 4//1;
 5/5=2,38=5/2;
 6/7=2,8=2,9=2,10=2,28=1,40=1/1,7;
 7//1,2,3,16;
 1/18=20,19=15,26=3/3(2);
 2/9=110/2;
 99//99;
 2/9=110/2;
 3/5=16,6=1,7=10,11=2,25=1,30=1,71=1,74=-55/1,2,3;
 4/5=5,16=3,69=1/1;
 5/5=2,38=5/2;
 7//1,2,3,16;
 1/18=20,19=15,26=3/3(-5);
 2/9=110/2;
 6/7=2,8=2,9=2,10=2,19=2,28=1,40=1/1,7;
 99/9=1/99;
 ------------------
 4-CF3_benzoic-acid
 ------------------
 Symbolic Z-matrix:
 Charge =  0 Multiplicity = 1
 C                    -1.177     0.143    -0.0007 
 C                    -1.1037   -1.198    -0.0011 
 C                     0.0818   -1.8319   -0.0002 
 C                     1.1937   -1.0761    0.0009 
 C                     1.1282    0.2646    0.0013 
 C                    -0.0605    0.8951    0.0005 
 C                    -0.1138    2.2589    0.0009 
 O                    -1.1574    2.877     0.0002 
 O                     1.0035    3.0279    0.0021 
 F                     0.866    -3.7496   -1.0641 
 C                     0.1918   -3.3387   -0.0006 
 F                    -0.9767   -3.9594   -0.0021 
 F                     0.8637   -3.7503    1.0641 
 H                    -2.1825    0.5959   -0.0014 
 H                    -2.0419   -1.7767   -0.002 
 H                     2.1825   -1.5651    0.0016 
 H                     2.079     0.8235    0.0022 
 H                     0.7307    3.9594    0.0022 
 

 GradGradGradGradGradGradGradGradGradGradGradGradGradGradGradGradGradGrad
 Berny optimization.
 Initialization pass.
                           ----------------------------
                           !    Initial Parameters    !
                           ! (Angstroms and Degrees)  !
 --------------------------                            --------------------------
 ! Name  Definition              Value          Derivative Info.                !
 --------------------------------------------------------------------------------
 ! R1    R(1,2)                  1.343          estimate D2E/DX2                !
 ! R2    R(1,6)                  1.3462         estimate D2E/DX2                !
 ! R3    R(1,14)                 1.1028         estimate D2E/DX2                !
 ! R4    R(2,3)                  1.3443         estimate D2E/DX2                !
 ! R5    R(2,15)                 1.1023         estimate D2E/DX2                !
 ! R6    R(3,4)                  1.3445         estimate D2E/DX2                !
 ! R7    R(3,11)                 1.5108         estimate D2E/DX2                !
 ! R8    R(4,5)                  1.3423         estimate D2E/DX2                !
 ! R9    R(4,16)                 1.1031         estimate D2E/DX2                !
 ! R10   R(5,6)                  1.3456         estimate D2E/DX2                !
 ! R11   R(5,17)                 1.1029         estimate D2E/DX2                !
 ! R12   R(6,7)                  1.3648         estimate D2E/DX2                !
 ! R13   R(7,8)                  1.2129         estimate D2E/DX2                !
 ! R14   R(7,9)                  1.3564         estimate D2E/DX2                !
 ! R15   R(9,18)                 0.9706         estimate D2E/DX2                !
 ! R16   R(10,11)                1.3245         estimate D2E/DX2                !
 ! R17   R(11,12)                1.3231         estimate D2E/DX2                !
 ! R18   R(11,13)                1.3246         estimate D2E/DX2                !
 ! A1    A(2,1,6)              120.8364         estimate D2E/DX2                !
 ! A2    A(2,1,14)             117.3766         estimate D2E/DX2                !
 ! A3    A(6,1,14)             121.787          estimate D2E/DX2                !
 ! A4    A(1,2,3)              121.2626         estimate D2E/DX2                !
 ! A5    A(1,2,15)             118.5384         estimate D2E/DX2                !
 ! A6    A(3,2,15)             120.199          estimate D2E/DX2                !
 ! A7    A(2,3,4)              117.6607         estimate D2E/DX2                !
 ! A8    A(2,3,11)             122.3092         estimate D2E/DX2                !
 ! A9    A(4,3,11)             120.0301         estimate D2E/DX2                !
 ! A10   A(3,4,5)              121.4084         estimate D2E/DX2                !
 ! A11   A(3,4,16)             119.4804         estimate D2E/DX2                !
 ! A12   A(5,4,16)             119.1111         estimate D2E/DX2                !
 ! A13   A(4,5,6)              120.7389         estimate D2E/DX2                !
 ! A14   A(4,5,17)             117.6509         estimate D2E/DX2                !
 ! A15   A(6,5,17)             121.6101         estimate D2E/DX2                !
 ! A16   A(1,6,5)              118.0929         estimate D2E/DX2                !
 ! A17   A(1,6,7)              121.727          estimate D2E/DX2                !
 ! A18   A(5,6,7)              120.1801         estimate D2E/DX2                !
 ! A19   A(6,7,8)              122.8753         estimate D2E/DX2                !
 ! A20   A(6,7,9)              122.3002         estimate D2E/DX2                !
 ! A21   A(8,7,9)              114.8244         estimate D2E/DX2                !
 ! A22   A(7,9,18)             108.2151         estimate D2E/DX2                !
 ! A23   A(3,11,10)            110.2837         estimate D2E/DX2                !
 ! A24   A(3,11,12)            113.8016         estimate D2E/DX2                !
 ! A25   A(3,11,13)            110.282          estimate D2E/DX2                !
 ! A26   A(10,11,12)           107.6428         estimate D2E/DX2                !
 ! A27   A(10,11,13)           106.9058         estimate D2E/DX2                !
 ! A28   A(12,11,13)           107.645          estimate D2E/DX2                !
 ! D1    D(6,1,2,3)              0.0059         estimate D2E/DX2                !
 ! D2    D(6,1,2,15)           179.9947         estimate D2E/DX2                !
 ! D3    D(14,1,2,3)          -179.9946         estimate D2E/DX2                !
 ! D4    D(14,1,2,15)           -0.0058         estimate D2E/DX2                !
 ! D5    D(2,1,6,5)             -0.0007         estimate D2E/DX2                !
 ! D6    D(2,1,6,7)            179.9988         estimate D2E/DX2                !
 ! D7    D(14,1,6,5)           179.9998         estimate D2E/DX2                !
 ! D8    D(14,1,6,7)            -0.0007         estimate D2E/DX2                !
 ! D9    D(1,2,3,4)             -0.0104         estimate D2E/DX2                !
 ! D10   D(1,2,3,11)           179.999          estimate D2E/DX2                !
 ! D11   D(15,2,3,4)          -179.999          estimate D2E/DX2                !
 ! D12   D(15,2,3,11)            0.0104         estimate D2E/DX2                !
 ! D13   D(2,3,4,5)              0.0101         estimate D2E/DX2                !
 ! D14   D(2,3,4,16)          -179.9965         estimate D2E/DX2                !
 ! D15   D(11,3,4,5)          -179.999          estimate D2E/DX2                !
 ! D16   D(11,3,4,16)           -0.0057         estimate D2E/DX2                !
 ! D17   D(2,3,11,10)          121.0854         estimate D2E/DX2                !
 ! D18   D(2,3,11,12)            0.0093         estimate D2E/DX2                !
 ! D19   D(2,3,11,13)         -121.0684         estimate D2E/DX2                !
 ! D20   D(4,3,11,10)          -58.905          estimate D2E/DX2                !
 ! D21   D(4,3,11,12)         -179.9811         estimate D2E/DX2                !
 ! D22   D(4,3,11,13)           58.9412         estimate D2E/DX2                !
 ! D23   D(3,4,5,6)             -0.0053         estimate D2E/DX2                !
 ! D24   D(3,4,5,17)          -179.9993         estimate D2E/DX2                !
 ! D25   D(16,4,5,6)          -179.9987         estimate D2E/DX2                !
 ! D26   D(16,4,5,17)            0.0073         estimate D2E/DX2                !
 ! D27   D(4,5,6,1)              0.0004         estimate D2E/DX2                !
 ! D28   D(4,5,6,7)           -179.9991         estimate D2E/DX2                !
 ! D29   D(17,5,6,1)           179.9942         estimate D2E/DX2                !
 ! D30   D(17,5,6,7)            -0.0053         estimate D2E/DX2                !
 ! D31   D(1,6,7,8)             -0.0006         estimate D2E/DX2                !
 ! D32   D(1,6,7,9)           -179.9997         estimate D2E/DX2                !
 ! D33   D(5,6,7,8)            179.9989         estimate D2E/DX2                !
 ! D34   D(5,6,7,9)             -0.0002         estimate D2E/DX2                !
 ! D35   D(6,7,9,18)          -179.9983         estimate D2E/DX2                !
 ! D36   D(8,7,9,18)             0.0025         estimate D2E/DX2                !
 --------------------------------------------------------------------------------
 Trust Radius=3.00D-01 FncErr=1.00D-07 GrdErr=1.00D-06 EigMax=2.50D+02 EigMin=1.00D-04
 Number of steps in this run=     92 maximum allowed number of steps=    108.
 GradGradGradGradGradGradGradGradGradGradGradGradGradGradGradGradGradGrad

                          Input orientation:                          
 ---------------------------------------------------------------------
 Center     Atomic      Atomic             Coordinates (Angstroms)
 Number     Number       Type             X           Y           Z
 ---------------------------------------------------------------------
      1          6           0       -1.177000    0.143000   -0.000700
      2          6           0       -1.103700   -1.198000   -0.001100
      3          6           0        0.081800   -1.831900   -0.000200
      4          6           0        1.193700   -1.076100    0.000900
      5          6           0        1.128200    0.264600    0.001300
      6          6           0       -0.060500    0.895100    0.000500
      7          6           0       -0.113800    2.258900    0.000900
      8          8           0       -1.157400    2.877000    0.000200
      9          8           0        1.003500    3.027900    0.002100
     10          9           0        0.866000   -3.749600   -1.064100
     11          6           0        0.191800   -3.338700   -0.000600
     12          9           0       -0.976700   -3.959400   -0.002100
     13          9           0        0.863700   -3.750300    1.064100
     14          1           0       -2.182500    0.595900   -0.001400
     15          1           0       -2.041900   -1.776700   -0.002000
     16          1           0        2.182500   -1.565100    0.001600
     17          1           0        2.079000    0.823500    0.002200
     18          1           0        0.730700    3.959400    0.002200
 ---------------------------------------------------------------------
                    Distance matrix (angstroms):
                    1          2          3          4          5
     1  C    0.000000
     2  C    1.343002   0.000000
     3  C    2.341967   1.344336   0.000000
     4  C    2.665788   2.300633   1.344454   0.000000
     5  C    2.308406   2.668442   2.343132   1.342299   0.000000
     6  C    1.346190   2.338661   2.730710   2.336375   1.345563
     7  C    2.368001   3.595840   4.095474   3.582148   2.349425
     8  O    2.734070   4.075354   4.869225   4.599421   3.471110
     9  O    3.616246   4.722132   4.946432   4.108405   2.766112
    10  F    4.522942   3.394164   2.329040   2.896414   4.161445
    11  C    3.741103   2.502182   1.510810   2.474503   3.722985
    12  F    4.107287   2.764319   2.376275   3.608887   4.719406
    13  F    4.522835   3.394046   2.329026   2.896660   4.161601
    14  H    1.102792   2.093296   3.319830   3.767534   3.327236
    15  H    2.105541   1.102322   2.124418   3.310582   3.770471
    16  H    3.768800   3.306642   2.117575   1.103108   2.111717
    17  H    3.326353   3.770418   3.322644   2.095767   1.102901
    18  H    4.266642   5.473921   5.827541   5.056741   3.716121
                    6          7          8          9         10
     6  C    0.000000
     7  C    1.364841   0.000000
     8  O    2.265197   1.212909   0.000000
     9  O    2.383471   1.356363   2.166163   0.000000
    10  F    4.854381   6.180316   7.009901   6.862230   0.000000
    11  C    4.241311   5.605936   6.360446   6.418135   1.324544
    12  F    4.940202   6.277887   6.838788   7.262477   2.137148
    13  F    4.854393   6.180322   7.009838   6.862316   2.128201
    14  H    2.142990   2.654260   2.500850   4.008146   5.413507
    15  H    3.326329   4.472544   4.737011   5.688467   3.671004
    16  H    3.329209   4.460490   5.557624   4.741908   2.764223
    17  H    2.140698   2.620829   3.832904   2.452770   4.849908
    18  H    3.164796   1.898653   2.176354   0.970625   7.783571
                   11         12         13         14         15
    11  C    0.000000
    12  F    1.323126   0.000000
    13  F    1.324557   2.137189   0.000000
    14  H    4.595474   4.712188   5.413324   0.000000
    15  H    2.725667   2.428751   3.670719   2.376762   0.000000
    16  H    2.666186   3.963992   2.764641   4.870642   4.229698
    17  H    4.570059   5.675690   4.850179   4.267575   4.872666
    18  H    7.317970   8.100779   7.783623   4.449706   6.371042
                   16         17         18
    16  H    0.000000
    17  H    2.390841   0.000000
    18  H    5.712077   3.413471   0.000000
 Stoichiometry    C8H5F3O2
 Framework group  C1[X(C8H5F3O2)]
 Deg. of freedom    48
 Full point group                 C1      NOp   1
 Largest Abelian subgroup         C1      NOp   1
 Largest concise Abelian subgroup C1      NOp   1
                         Standard orientation:                         
 ---------------------------------------------------------------------
 Center     Atomic      Atomic             Coordinates (Angstroms)
 Number     Number       Type             X           Y           Z
 ---------------------------------------------------------------------
      1          6           0        0.997168    1.211729   -0.000009
      2          6           0       -0.345709    1.193407   -0.000051
      3          6           0       -1.027625    0.034860    0.000033
      4          6           0       -0.317993   -1.107059   -0.000058
      5          6           0        1.024265   -1.096517   -0.000023
      6          6           0        1.702915    0.065366   -0.000003
      7          6           0        3.067753    0.062772    0.000014
      8          8           0        3.728072    1.080185    0.000014
      9          8           0        3.790354   -1.085083    0.000014
     10          9           0       -2.976127   -0.669225   -1.063936
     11          6           0       -2.537666   -0.013342    0.000012
     12          9           0       -3.109994    1.179597   -0.000291
     13          9           0       -2.976139   -0.668749    1.064266
     14          1           0        1.490864    2.197840    0.000010
     15          1           0       -0.885504    2.154519    0.000036
     16          1           0       -0.847075   -2.075005   -0.000052
     17          1           0        1.543760   -2.069408   -0.000114
     18          1           0        4.732244   -0.850658    0.000055
 ---------------------------------------------------------------------
 Rotational constants (GHZ):           2.4434180           0.3864262           0.3537551
 Standard basis: Aug-CC-pVTZ (5D, 7F)
 There are   840 symmetry adapted cartesian basis functions of A   symmetry.
 There are   713 symmetry adapted basis functions of A   symmetry.
   713 basis functions,  1071 primitive gaussians,   840 cartesian basis functions
    48 alpha electrons       48 beta electrons
       nuclear repulsion energy       800.0044807087 Hartrees.
 NAtoms=   18 NActive=   18 NUniq=   18 SFac= 1.00D+00 NAtFMM=   60 NAOKFM=F Big=F
 Integral buffers will be    131072 words long.
 Raffenetti 2 integral format.
 Two-electron integral symmetry is turned on.
 One-electron integrals computed using PRISM.
 NBasis=   713 RedAO= T EigKep=  1.16D-06  NBF=   713
 NBsUse=   710 1.00D-06 EigRej=  7.64D-07 NBFU=   710
 ExpMin= 2.53D-02 ExpMax= 1.95D+04 ExpMxC= 6.65D+02 IAcc=3 IRadAn=         5 AccDes= 0.00D+00
 Harris functional with IExCor= 1009 and IRadAn=       5 diagonalized for initial guess.
 HarFok:  IExCor= 1009 AccDes= 0.00D+00 IRadAn=         5 IDoV= 1 UseB2=F ITyADJ=14
 ICtDFT=  3500011 ScaDFX=  1.000000  1.000000  1.000000  1.000000
 FoFCou: FMM=F IPFlag=           0 FMFlag=      100000 FMFlg1=           0
         NFxFlg=           0 DoJE=T BraDBF=F KetDBF=T FulRan=T
         wScrn=  0.000000 ICntrl=       500 IOpCl=  0 I1Cent=   200000004 NGrid=           0
         NMat0=    1 NMatS0=      1 NMatT0=    0 NMatD0=    1 NMtDS0=    0 NMtDT0=    0
 Petite list used in FoFCou.
 Requested convergence on RMS density matrix=1.00D-08 within 128 cycles.
 Requested convergence on MAX density matrix=1.00D-06.
 Requested convergence on             energy=1.00D-06.
 No special actions if energy rises.
 SCF Done:  E(RM062X) =  -757.875140768     A.U. after   14 cycles
            NFock= 14  Conv=0.28D-08     -V/T= 2.0034

 **********************************************************************

            Population analysis using the SCF Density.

 **********************************************************************

 Orbital symmetries:
       Occupied  (A) (A) (A) (A) (A) (A) (A) (A) (A) (A) (A) (A)
                 (A) (A) (A) (A) (A) (A) (A) (A) (A) (A) (A) (A)
                 (A) (A) (A) (A) (A) (A) (A) (A) (A) (A) (A) (A)
                 (A) (A) (A) (A) (A) (A) (A) (A) (A) (A) (A) (A)
       Virtual   (A) (A) (A) (A) (A) (A) (A) (A) (A) (A) (A) (A)
                 (A) (A) (A) (A) (A) (A) (A) (A) (A) (A) (A) (A)
                 (A) (A) (A) (A) (A) (A) (A) (A) (A) (A) (A) (A)
                 (A) (A) (A) (A) (A) (A) (A) (A) (A) (A) (A) (A)
                 (A) (A) (A) (A) (A) (A) (A) (A) (A) (A) (A) (A)
                 (A) (A) (A) (A) (A) (A) (A) (A) (A) (A) (A) (A)
                 (A) (A) (A) (A) (A) (A) (A) (A) (A) (A) (A) (A)
                 (A) (A) (A) (A) (A) (A) (A) (A) (A) (A) (A) (A)
                 (A) (A) (A) (A) (A) (A) (A) (A) (A) (A) (A) (A)
                 (A) (A) (A) (A) (A) (A) (A) (A) (A) (A) (A) (A)
                 (A) (A) (A) (A) (A) (A) (A) (A) (A) (A) (A) (A)
                 (A) (A) (A) (A) (A) (A) (A) (A) (A) (A) (A) (A)
                 (A) (A) (A) (A) (A) (A) (A) (A) (A) (A) (A) (A)
                 (A) (A) (A) (A) (A) (A) (A) (A) (A) (A) (A) (A)
                 (A) (A) (A) (A) (A) (A) (A) (A) (A) (A) (A) (A)
                 (A) (A) (A) (A) (A) (A) (A) (A) (A) (A) (A) (A)
                 (A) (A) (A) (A) (A) (A) (A) (A) (A) (A) (A) (A)
                 (A) (A) (A) (A) (A) (A) (A) (A) (A) (A) (A) (A)
                 (A) (A) (A) (A) (A) (A) (A) (A) (A) (A) (A) (A)
                 (A) (A) (A) (A) (A) (A) (A) (A) (A) (A) (A) (A)
                 (A) (A) (A) (A) (A) (A) (A) (A) (A) (A) (A) (A)
                 (A) (A) (A) (A) (A) (A) (A) (A) (A) (A) (A) (A)
                 (A) (A) (A) (A) (A) (A) (A) (A) (A) (A) (A) (A)
                 (A) (A) (A) (A) (A) (A) (A) (A) (A) (A) (A) (A)
                 (A) (A) (A) (A) (A) (A) (A) (A) (A) (A) (A) (A)
                 (A) (A) (A) (A) (A) (A) (A) (A) (A) (A) (A) (A)
                 (A) (A) (A) (A) (A) (A) (A) (A) (A) (A) (A) (A)
                 (A) (A) (A) (A) (A) (A) (A) (A) (A) (A) (A) (A)
                 (A) (A) (A) (A) (A) (A) (A) (A) (A) (A) (A) (A)
                 (A) (A) (A) (A) (A) (A) (A) (A) (A) (A) (A) (A)
                 (A) (A) (A) (A) (A) (A) (A) (A) (A) (A) (A) (A)
                 (A) (A) (A) (A) (A) (A) (A) (A) (A) (A) (A) (A)
                 (A) (A) (A) (A) (A) (A) (A) (A) (A) (A) (A) (A)
                 (A) (A) (A) (A) (A) (A) (A) (A) (A) (A) (A) (A)
                 (A) (A) (A) (A) (A) (A) (A) (A) (A) (A) (A) (A)
                 (A) (A) (A) (A) (A) (A) (A) (A) (A) (A) (A) (A)
                 (A) (A) (A) (A) (A) (A) (A) (A) (A) (A) (A) (A)
                 (A) (A) (A) (A) (A) (A) (A) (A) (A) (A) (A) (A)
                 (A) (A) (A) (A) (A) (A) (A) (A) (A) (A) (A) (A)
                 (A) (A) (A) (A) (A) (A) (A) (A) (A) (A) (A) (A)
                 (A) (A) (A) (A) (A) (A) (A) (A) (A) (A) (A) (A)
                 (A) (A) (A) (A) (A) (A) (A) (A) (A) (A) (A) (A)
                 (A) (A) (A) (A) (A) (A) (A) (A) (A) (A) (A) (A)
                 (A) (A) (A) (A) (A) (A) (A) (A) (A) (A) (A) (A)
                 (A) (A) (A) (A) (A) (A) (A) (A) (A) (A) (A) (A)
                 (A) (A) (A) (A) (A) (A) (A) (A) (A) (A) (A) (A)
                 (A) (A) (A) (A) (A) (A) (A) (A) (A) (A) (A) (A)
                 (A) (A) (A) (A) (A) (A) (A) (A) (A) (A) (A) (A)
                 (A) (A) (A) (A) (A) (A) (A) (A) (A) (A) (A) (A)
                 (A) (A) (A) (A) (A) (A) (A) (A) (A) (A) (A) (A)
                 (A) (A) (A) (A) (A) (A) (A) (A) (A) (A) (A) (A)
                 (A) (A) (A) (A) (A) (A) (A) (A) (A) (A) (A) (A)
                 (A) (A) (A) (A) (A) (A) (A) (A) (A) (A) (A) (A)
                 (A) (A) (A) (A) (A) (A) (A) (A) (A) (A) (A) (A)
                 (A) (A) (A) (A) (A) (A) (A) (A) (A) (A) (A) (A)
                 (A) (A)
 The electronic state is 1-A.
 Alpha  occ. eigenvalues --  -25.29510 -25.28982 -25.28981 -19.67770 -19.61889
 Alpha  occ. eigenvalues --  -10.81012 -10.68340 -10.58605 -10.57187 -10.57109
 Alpha  occ. eigenvalues --  -10.57021 -10.56993 -10.56941  -1.49154  -1.39594
 Alpha  occ. eigenvalues --   -1.39193  -1.24996  -1.14086  -1.03739  -0.94281
 Alpha  occ. eigenvalues --   -0.89355  -0.85011  -0.78648  -0.74537  -0.71566
 Alpha  occ. eigenvalues --   -0.71119  -0.70209  -0.68523  -0.64309  -0.59711
 Alpha  occ. eigenvalues --   -0.59210  -0.58694  -0.56792  -0.56052  -0.54937
 Alpha  occ. eigenvalues --   -0.54803  -0.54223  -0.53190  -0.52779  -0.51681
 Alpha  occ. eigenvalues --   -0.49156  -0.48897  -0.45096  -0.43007  -0.40899
 Alpha  occ. eigenvalues --   -0.36799  -0.35814  -0.35076
 Alpha virt. eigenvalues --   -0.05376  -0.01051  -0.00246   0.00102   0.00443
 Alpha virt. eigenvalues --    0.02053   0.02344   0.02654   0.03326   0.04063
 Alpha virt. eigenvalues --    0.04619   0.05568   0.05786   0.06515   0.06695
 Alpha virt. eigenvalues --    0.07692   0.07935   0.08438   0.08750   0.09001
 Alpha virt. eigenvalues --    0.09171   0.09642   0.09667   0.10081   0.10395
 Alpha virt. eigenvalues --    0.10900   0.10979   0.11649   0.13319   0.13736
 Alpha virt. eigenvalues --    0.13889   0.14529   0.14786   0.15064   0.15403
 Alpha virt. eigenvalues --    0.16716   0.17518   0.18091   0.18822   0.18873
 Alpha virt. eigenvalues --    0.18957   0.19641   0.19913   0.20189   0.20440
 Alpha virt. eigenvalues --    0.21212   0.21392   0.22141   0.22480   0.22536
 Alpha virt. eigenvalues --    0.22774   0.23378   0.23722   0.24170   0.24828
 Alpha virt. eigenvalues --    0.25027   0.25689   0.25915   0.26213   0.27001
 Alpha virt. eigenvalues --    0.27189   0.27220   0.28018   0.28239   0.29256
 Alpha virt. eigenvalues --    0.29601   0.30021   0.30145   0.31113   0.31133
 Alpha virt. eigenvalues --    0.32378   0.32769   0.32785   0.32937   0.33125
 Alpha virt. eigenvalues --    0.33197   0.34017   0.34648   0.35312   0.35532
 Alpha virt. eigenvalues --    0.36051   0.36648   0.37276   0.37614   0.37671
 Alpha virt. eigenvalues --    0.37986   0.38489   0.38957   0.39379   0.39983
 Alpha virt. eigenvalues --    0.40504   0.40710   0.41670   0.42383   0.42968
 Alpha virt. eigenvalues --    0.43428   0.43619   0.43994   0.44401   0.44908
 Alpha virt. eigenvalues --    0.45452   0.46407   0.46625   0.47362   0.48393
 Alpha virt. eigenvalues --    0.48791   0.49013   0.50729   0.51321   0.52152
 Alpha virt. eigenvalues --    0.52318   0.53264   0.54203   0.54271   0.55421
 Alpha virt. eigenvalues --    0.56486   0.56552   0.56946   0.56963   0.57831
 Alpha virt. eigenvalues --    0.58687   0.59776   0.60627   0.61558   0.61602
 Alpha virt. eigenvalues --    0.62450   0.63157   0.63563   0.64546   0.65188
 Alpha virt. eigenvalues --    0.65818   0.66198   0.67533   0.68680   0.69361
 Alpha virt. eigenvalues --    0.70068   0.70747   0.70977   0.71681   0.72643
 Alpha virt. eigenvalues --    0.72728   0.74155   0.74325   0.75102   0.75643
 Alpha virt. eigenvalues --    0.76025   0.76157   0.76987   0.77541   0.78173
 Alpha virt. eigenvalues --    0.78388   0.78911   0.79236   0.79447   0.79498
 Alpha virt. eigenvalues --    0.80541   0.81895   0.81931   0.82236   0.83138
 Alpha virt. eigenvalues --    0.83484   0.84173   0.84699   0.84771   0.86007
 Alpha virt. eigenvalues --    0.86372   0.87034   0.87512   0.88396   0.89911
 Alpha virt. eigenvalues --    0.90005   0.90101   0.90517   0.91083   0.91376
 Alpha virt. eigenvalues --    0.92738   0.93122   0.93601   0.94079   0.94083
 Alpha virt. eigenvalues --    0.94934   0.95461   0.96463   0.97527   0.97992
 Alpha virt. eigenvalues --    0.97993   0.98432   0.99118   0.99977   1.00318
 Alpha virt. eigenvalues --    1.01357   1.01758   1.01760   1.03329   1.03460
 Alpha virt. eigenvalues --    1.03549   1.04583   1.05420   1.05955   1.06649
 Alpha virt. eigenvalues --    1.07193   1.07235   1.07504   1.08892   1.09854
 Alpha virt. eigenvalues --    1.10114   1.11188   1.11477   1.11545   1.12759
 Alpha virt. eigenvalues --    1.13621   1.14484   1.15845   1.16597   1.17251
 Alpha virt. eigenvalues --    1.17757   1.18562   1.18759   1.19750   1.21314
 Alpha virt. eigenvalues --    1.21603   1.21933   1.23269   1.24150   1.24692
 Alpha virt. eigenvalues --    1.25161   1.26460   1.26782   1.26874   1.28279
 Alpha virt. eigenvalues --    1.28331   1.29706   1.30425   1.32002   1.32792
 Alpha virt. eigenvalues --    1.33179   1.33329   1.34627   1.35518   1.37417
 Alpha virt. eigenvalues --    1.37693   1.39508   1.40002   1.40996   1.42020
 Alpha virt. eigenvalues --    1.42244   1.43052   1.44796   1.45499   1.46672
 Alpha virt. eigenvalues --    1.47083   1.47650   1.48763   1.48982   1.50366
 Alpha virt. eigenvalues --    1.50937   1.52761   1.53616   1.53708   1.54060
 Alpha virt. eigenvalues --    1.55061   1.55934   1.57022   1.58157   1.58351
 Alpha virt. eigenvalues --    1.60385   1.61034   1.61165   1.61344   1.63567
 Alpha virt. eigenvalues --    1.63625   1.66141   1.66773   1.67378   1.67463
 Alpha virt. eigenvalues --    1.67826   1.69470   1.69741   1.71000   1.71187
 Alpha virt. eigenvalues --    1.71850   1.72480   1.74306   1.74357   1.75033
 Alpha virt. eigenvalues --    1.77549   1.78428   1.78621   1.80704   1.81610
 Alpha virt. eigenvalues --    1.82114   1.82460   1.83161   1.83243   1.84433
 Alpha virt. eigenvalues --    1.86034   1.86569   1.87777   1.87980   1.89720
 Alpha virt. eigenvalues --    1.90324   1.90594   1.90866   1.92130   1.93039
 Alpha virt. eigenvalues --    1.93965   1.95469   1.97736   1.97906   2.00527
 Alpha virt. eigenvalues --    2.02130   2.03913   2.04140   2.06604   2.07016
 Alpha virt. eigenvalues --    2.09175   2.09744   2.09816   2.10942   2.15040
 Alpha virt. eigenvalues --    2.15138   2.15668   2.16638   2.17123   2.17956
 Alpha virt. eigenvalues --    2.20019   2.22237   2.23808   2.25218   2.26386
 Alpha virt. eigenvalues --    2.27148   2.29517   2.30584   2.32262   2.33818
 Alpha virt. eigenvalues --    2.35149   2.38264   2.39770   2.40012   2.40260
 Alpha virt. eigenvalues --    2.42031   2.42590   2.44409   2.45253   2.47362
 Alpha virt. eigenvalues --    2.48983   2.50087   2.53435   2.54066   2.55522
 Alpha virt. eigenvalues --    2.56440   2.57376   2.57658   2.59912   2.60373
 Alpha virt. eigenvalues --    2.61892   2.62685   2.64245   2.66045   2.67766
 Alpha virt. eigenvalues --    2.67769   2.68515   2.69737   2.74837   2.75002
 Alpha virt. eigenvalues --    2.75964   2.76254   2.77751   2.77763   2.79492
 Alpha virt. eigenvalues --    2.80272   2.82391   2.82802   2.84924   2.86113
 Alpha virt. eigenvalues --    2.86639   2.87844   2.90122   2.90631   2.90665
 Alpha virt. eigenvalues --    2.94423   2.94910   2.95951   2.96120   2.96853
 Alpha virt. eigenvalues --    2.98418   3.00025   3.00392   3.01224   3.01410
 Alpha virt. eigenvalues --    3.03225   3.03703   3.06276   3.07233   3.08057
 Alpha virt. eigenvalues --    3.09032   3.10978   3.11659   3.12340   3.12973
 Alpha virt. eigenvalues --    3.13514   3.14645   3.16288   3.17626   3.17962
 Alpha virt. eigenvalues --    3.18945   3.19175   3.21177   3.21707   3.22492
 Alpha virt. eigenvalues --    3.23124   3.24139   3.24967   3.25668   3.27046
 Alpha virt. eigenvalues --    3.27488   3.28478   3.28805   3.29177   3.32345
 Alpha virt. eigenvalues --    3.33072   3.33666   3.35476   3.37196   3.38610
 Alpha virt. eigenvalues --    3.39598   3.40197   3.40741   3.42785   3.44579
 Alpha virt. eigenvalues --    3.45416   3.45592   3.47237   3.47548   3.49049
 Alpha virt. eigenvalues --    3.49748   3.52511   3.52879   3.54430   3.54747
 Alpha virt. eigenvalues --    3.56104   3.57811   3.58411   3.58819   3.59355
 Alpha virt. eigenvalues --    3.61259   3.62063   3.63011   3.63234   3.64364
 Alpha virt. eigenvalues --    3.64461   3.66406   3.67612   3.68036   3.69453
 Alpha virt. eigenvalues --    3.72530   3.74083   3.74967   3.75528   3.76733
 Alpha virt. eigenvalues --    3.77536   3.78183   3.78877   3.81316   3.82753
 Alpha virt. eigenvalues --    3.83152   3.84975   3.86126   3.88508   3.88671
 Alpha virt. eigenvalues --    3.89844   3.90463   3.90732   3.92882   3.93177
 Alpha virt. eigenvalues --    3.93514   3.94189   3.95860   3.97500   3.97856
 Alpha virt. eigenvalues --    3.98997   3.99383   4.01138   4.03177   4.03647
 Alpha virt. eigenvalues --    4.04342   4.05741   4.06891   4.08680   4.10661
 Alpha virt. eigenvalues --    4.11396   4.11926   4.14062   4.15889   4.15938
 Alpha virt. eigenvalues --    4.16988   4.19780   4.20928   4.21627   4.23612
 Alpha virt. eigenvalues --    4.25006   4.27066   4.28263   4.28895   4.29961
 Alpha virt. eigenvalues --    4.33475   4.34772   4.37594   4.37791   4.38318
 Alpha virt. eigenvalues --    4.40505   4.41533   4.44344   4.45569   4.46381
 Alpha virt. eigenvalues --    4.49105   4.50628   4.52377   4.55143   4.55558
 Alpha virt. eigenvalues --    4.56241   4.59362   4.60257   4.61616   4.62578
 Alpha virt. eigenvalues --    4.64126   4.65998   4.66795   4.67266   4.68556
 Alpha virt. eigenvalues --    4.70541   4.70582   4.72644   4.75851   4.76473
 Alpha virt. eigenvalues --    4.77919   4.77995   4.81104   4.82037   4.87561
 Alpha virt. eigenvalues --    4.87927   4.88867   4.89037   4.91572   4.97762
 Alpha virt. eigenvalues --    5.00875   5.03551   5.03790   5.04080   5.05183
 Alpha virt. eigenvalues --    5.08232   5.08641   5.10069   5.14953   5.16523
 Alpha virt. eigenvalues --    5.21803   5.26985   5.34855   5.34961   5.36557
 Alpha virt. eigenvalues --    5.38340   5.42239   5.44975   5.45704   5.48566
 Alpha virt. eigenvalues --    5.50555   5.58467   5.58570   5.63334   5.68638
 Alpha virt. eigenvalues --    5.75111   5.79467   5.82272   5.90756   5.95089
 Alpha virt. eigenvalues --    5.97182   6.01066   6.09846   6.12511   6.16040
 Alpha virt. eigenvalues --    6.23112   6.25607   6.29282   6.36481   6.38804
 Alpha virt. eigenvalues --    6.42791   6.46154   6.52396   6.54493   6.56790
 Alpha virt. eigenvalues --    6.62503   6.70818   6.71373   6.74691   6.74854
 Alpha virt. eigenvalues --    6.79638   6.82239   6.86877   6.87724   6.90476
 Alpha virt. eigenvalues --    6.91683   7.00015   7.05540   7.07810   7.09003
 Alpha virt. eigenvalues --    7.13754   7.18053   7.32588   7.39840   7.51981
 Alpha virt. eigenvalues --    7.69956   7.88844   8.03970   8.41702   8.44362
 Alpha virt. eigenvalues --    8.46168   8.48654   8.50826   8.55223   8.65808
 Alpha virt. eigenvalues --    8.66852   8.76225   8.77068   8.77308   8.78749
 Alpha virt. eigenvalues --    8.81505   8.83148   8.83759   8.86775   8.86855
 Alpha virt. eigenvalues --    8.88351   8.90483   8.93401   8.93582   8.94612
 Alpha virt. eigenvalues --    8.97868   9.01275   9.02573   9.03795   9.11501
 Alpha virt. eigenvalues --    9.12459   9.14381   9.14995   9.20392   9.32007
 Alpha virt. eigenvalues --    9.34690   9.40973   9.53094   9.59462  15.41757
 Alpha virt. eigenvalues --   15.48720  15.71005  15.92418  16.20466  17.11752
 Alpha virt. eigenvalues --   17.60228  18.13233  18.47510  19.66659  20.35358
 Alpha virt. eigenvalues --   20.47983  21.02331
          Condensed to atoms (all electrons):
               1          2          3          4          5          6
     1  C    8.933282  -0.292846  -0.172981  -0.034971   0.025727  -1.194566
     2  C   -0.292846   8.767729  -1.126571  -0.160037  -0.140416  -0.066887
     3  C   -0.172981  -1.126571   8.238097  -0.666256  -0.309672  -0.091642
     4  C   -0.034971  -0.160037  -0.666256   8.179208  -0.084883  -0.326727
     5  C    0.025727  -0.140416  -0.309672  -0.084883   8.207389  -0.604730
     6  C   -1.194566  -0.066887  -0.091642  -0.326727  -0.604730   8.080874
     7  C   -0.798355  -0.044636   0.128249   0.109012  -0.971906  -0.585016
     8  O   -0.000591  -0.015643  -0.006166  -0.014789   0.082252  -0.208188
     9  O   -0.015258   0.010325  -0.014320   0.020530  -0.024913  -0.055783
    10  F    0.014600  -0.086304   0.048806  -0.063705   0.004762   0.006865
    11  C    0.016576  -0.798052  -0.127969  -0.421985   0.045782   0.110922
    12  F    0.010427  -0.082449  -0.006463   0.034764  -0.007897  -0.004126
    13  F    0.014582  -0.086495   0.048796  -0.063779   0.004808   0.006921
    14  H    1.176196  -0.865216   0.094213   0.032063  -0.007883  -1.040194
    15  H   -0.888301   1.316815  -1.079513   0.034232   0.083266   0.065874
    16  H   -0.000214   0.089790  -0.277281   0.618471  -0.394436   0.030031
    17  H    0.137190   0.001841   0.082843  -0.595066   0.700091  -0.538024
    18  H   -0.036471  -0.000232   0.002875   0.000938  -0.011836   0.029922
               7          8          9         10         11         12
     1  C   -0.798355  -0.000591  -0.015258   0.014600   0.016576   0.010427
     2  C   -0.044636  -0.015643   0.010325  -0.086304  -0.798052  -0.082449
     3  C    0.128249  -0.006166  -0.014320   0.048806  -0.127969  -0.006463
     4  C    0.109012  -0.014789   0.020530  -0.063705  -0.421985   0.034764
     5  C   -0.971906   0.082252  -0.024913   0.004762   0.045782  -0.007897
     6  C   -0.585016  -0.208188  -0.055783   0.006865   0.110922  -0.004126
     7  C    7.879276  -0.062620   0.043456   0.003061   0.012485  -0.000398
     8  O   -0.062620   9.338315  -0.103584  -0.000021   0.000562   0.000033
     9  O    0.043456  -0.103584   8.625634  -0.000004   0.000718   0.000016
    10  F    0.003061  -0.000021  -0.000004   9.233233   0.293286  -0.065821
    11  C    0.012485   0.000562   0.000718   0.293286   5.921380   0.234694
    12  F   -0.000398   0.000033   0.000016  -0.065821   0.234694   9.233107
    13  F    0.003066  -0.000021  -0.000004  -0.031117   0.293571  -0.065799
    14  H    0.223658   0.003817  -0.006848   0.002232  -0.005511  -0.003059
    15  H   -0.093289  -0.003583   0.001484  -0.017391  -0.115000   0.029626
    16  H   -0.026346   0.000310  -0.003509  -0.021601  -0.083122   0.003790
    17  H   -0.014518   0.014513  -0.044487   0.001896   0.006173   0.000004
    18  H    0.074880  -0.104262   0.158384   0.000023  -0.000030   0.000005
              13         14         15         16         17         18
     1  C    0.014582   1.176196  -0.888301  -0.000214   0.137190  -0.036471
     2  C   -0.086495  -0.865216   1.316815   0.089790   0.001841  -0.000232
     3  C    0.048796   0.094213  -1.079513  -0.277281   0.082843   0.002875
     4  C   -0.063779   0.032063   0.034232   0.618471  -0.595066   0.000938
     5  C    0.004808  -0.007883   0.083266  -0.394436   0.700091  -0.011836
     6  C    0.006921  -1.040194   0.065874   0.030031  -0.538024   0.029922
     7  C    0.003066   0.223658  -0.093289  -0.026346  -0.014518   0.074880
     8  O   -0.000021   0.003817  -0.003583   0.000310   0.014513  -0.104262
     9  O   -0.000004  -0.006848   0.001484  -0.003509  -0.044487   0.158384
    10  F   -0.031117   0.002232  -0.017391  -0.021601   0.001896   0.000023
    11  C    0.293571  -0.005511  -0.115000  -0.083122   0.006173  -0.000030
    12  F   -0.065799  -0.003059   0.029626   0.003790   0.000004   0.000005
    13  F    9.233281   0.002243  -0.017487  -0.021681   0.001906   0.000023
    14  H    0.002243   2.134158  -0.702366  -0.008453   0.016069  -0.003299
    15  H   -0.017487  -0.702366   2.251737   0.019860  -0.014931  -0.000140
    16  H   -0.021681  -0.008453   0.019860   0.923683  -0.130237   0.000195
    17  H    0.001906   0.016069  -0.014931  -0.130237   1.429630  -0.007985
    18  H    0.000023  -0.003299  -0.000140   0.000195  -0.007985   0.597517
 Mulliken charges:
               1
     1  C   -0.894025
     2  C   -0.420715
     3  C    1.234955
     4  C   -0.597020
     5  C   -0.595504
     6  C    2.384475
     7  C    0.119940
     8  O   -0.920335
     9  O   -0.591838
    10  F   -0.322801
    11  C    0.615518
    12  F   -0.310454
    13  F   -0.322815
    14  H   -0.041820
    15  H    0.129105
    16  H    0.280750
    17  H   -0.046908
    18  H    0.299492
 Sum of Mulliken charges =   0.00000
 Mulliken charges with hydrogens summed into heavy atoms:
               1
     1  C   -0.935845
     2  C   -0.291610
     3  C    1.234955
     4  C   -0.316270
     5  C   -0.642412
     6  C    2.384475
     7  C    0.119940
     8  O   -0.920335
     9  O   -0.292346
    10  F   -0.322801
    11  C    0.615518
    12  F   -0.310454
    13  F   -0.322815
 Electronic spatial extent (au):  <R**2>=           2821.5232
 Charge=              0.0000 electrons
 Dipole moment (field-independent basis, Debye):
    X=              0.6346    Y=             -1.0858    Z=              0.0000  Tot=              1.2577
 Quadrupole moment (field-independent basis, Debye-Ang):
   XX=            -77.9763   YY=            -69.5780   ZZ=            -73.8635
   XY=             -7.0033   XZ=              0.0003   YZ=              0.0003
 Traceless Quadrupole moment (field-independent basis, Debye-Ang):
   XX=             -4.1703   YY=              4.2279   ZZ=             -0.0576
   XY=             -7.0033   XZ=              0.0003   YZ=              0.0003
 Octapole moment (field-independent basis, Debye-Ang**2):
  XXX=              8.6120  YYY=             -1.9784  ZZZ=             -0.0004  XYY=            -22.1101
  XXY=            -33.5796  XXZ=              0.0014  XZZ=             -8.7476  YZZ=              0.7962
  YYZ=              0.0006  XYZ=             -0.0005
 Hexadecapole moment (field-independent basis, Debye-Ang**3):
 XXXX=          -2436.2440 YYYY=           -422.1469 ZZZZ=           -135.9191 XXXY=           -170.6987
 XXXZ=              0.0104 YYYX=             -2.7740 YYYZ=              0.0017 ZZZX=              0.0027
 ZZZY=             -0.0002 XXYY=           -563.6608 XXZZ=           -468.9186 YYZZ=           -103.9217
 XXYZ=             -0.0009 YYXZ=             -0.0028 ZZXY=             -3.0713
 N-N= 8.000044807087D+02 E-N=-3.383771100842D+03  KE= 7.552931747035D+02
 ******************************Gaussian NBO Version 3.1******************************
             N A T U R A L   A T O M I C   O R B I T A L   A N D
          N A T U R A L   B O N D   O R B I T A L   A N A L Y S I S
 ******************************Gaussian NBO Version 3.1******************************
       /RESON  / : Allow strongly delocalized NBO set

 Analyzing the SCF density

 Job title: 4-CF3_benzoic-acid                                              

 Storage needed:   1528079 in NPA,   2035985 in NBO (********** available)
 GSVD:  LWork=       34039 too small for GESVD, short by      910256 words or      910256 for optimal perf.
 Remove ICRem=  112 ICRemI=  104 L=2 PNAO number  124 atom    3 type 255 NPNAO=  713
   due to symmetric orthogonalization 2, value= 0.00D+00.
 Remove ICRem=  112 ICRemI=  104 L=2 PNAO number  121 atom    3 type 254 NPNAO=  712
   due to symmetric orthogonalization 2, value= 0.00D+00.
 Remove ICRem=  112 ICRemI=  104 L=2 PNAO number  118 atom    3 type 253 NPNAO=  711
   due to symmetric orthogonalization 2, value= 0.00D+00.
 Remove ICRem=  112 ICRemI=  104 L=2 PNAO number  115 atom    3 type 252 NPNAO=  710
   due to symmetric orthogonalization 2, value= 0.00D+00.
 Remove ICRem=  112 ICRemI=  104 L=2 PNAO number  112 atom    3 type 251 NPNAO=  709
   due to symmetric orthogonalization 2, value= 0.00D+00.
 GSVD:  LWork=       43729 too small for GESVD, short by      881231 words or      881231 for optimal perf.
 Remove ICRem=  467 ICRemI=  104 L=1 PNAO number  471 atom   11 type 153 NPNAO=  708
   due to symmetric orthogonalization 2, value= 0.00D+00.
 Remove ICRem=  467 ICRemI=  104 L=1 PNAO number  467 atom   11 type 152 NPNAO=  707
   due to symmetric orthogonalization 2, value= 0.00D+00.
 Remove ICRem=  467 ICRemI=  104 L=1 PNAO number  463 atom   11 type 151 NPNAO=  706
   due to symmetric orthogonalization 2, value= 0.00D+00.
 GSVD:  LWork=       49495 too small for GESVD, short by      863960 words or      863960 for optimal perf.
 Remove ICRem=  138 ICRemI=  104 L=0 PNAO number  138 atom    4 type  51 NPNAO=  705
   due to symmetric orthogonalization 2, value= 0.00D+00.
 GSVD:  LWork=       51409 too small for GESVD, short by      858227 words or      858227 for optimal perf.
 Remove ICRem=   51 ICRemI=  104 L=0 PNAO number   51 atom    2 type  51 NPNAO=  704
   due to symmetric orthogonalization 2, value= 0.00D+00.
 GSVD:  LWork=       53319 too small for GESVD, short by      852506 words or      852506 for optimal perf.
 Remove ICRem=   57 ICRemI=  103 L=1 PNAO number   61 atom    2 type 153 NPNAO=  703
   due to symmetric orthogonalization 2, value= 0.00D+00.
 Remove ICRem=   57 ICRemI=  103 L=1 PNAO number   57 atom    2 type 152 NPNAO=  702
   due to symmetric orthogonalization 2, value= 0.00D+00.
 Remove ICRem=   57 ICRemI=  103 L=1 PNAO number   53 atom    2 type 151 NPNAO=  701
   due to symmetric orthogonalization 2, value= 0.00D+00.
 GSVD:  LWork=       59025 too small for GESVD, short by      835415 words or      835415 for optimal perf.

 Computed number of electrons   95.99970756 does not match expected value of    96.


 NATURAL POPULATIONS:  Natural atomic orbital occupancies 
                                                          
   NAO  Atom  No  lang   Type(AO)    Occupancy      Energy
 ----------------------------------------------------------
     1    C    1  S      Cor( 1S)     1.99914     -10.40121
     2    C    1  S      Val( 2S)     0.94490      -0.18943
     3    C    1  S      Ryd( 3S)     0.00312       1.53047
     4    C    1  S      Ryd( 5S)     0.00033       3.08150
     5    C    1  S      Ryd( 4S)     0.00006       2.18909
     6    C    1  px     Val( 2p)     1.08559      -0.08278
     7    C    1  px     Ryd( 4p)     0.00407       1.60663
     8    C    1  px     Ryd( 3p)     0.00030       1.45602
     9    C    1  px     Ryd( 5p)     0.00017       2.76790
    10    C    1  py     Val( 2p)     1.14732      -0.08693
    11    C    1  py     Ryd( 3p)     0.00738       1.50378
    12    C    1  py     Ryd( 4p)     0.00021       1.87390
    13    C    1  py     Ryd( 5p)     0.00007       2.12137
    14    C    1  pz     Val( 2p)     0.93571      -0.13633
    15    C    1  pz     Ryd( 3p)     0.00092       0.82328
    16    C    1  pz     Ryd( 5p)     0.00050       1.63401
    17    C    1  pz     Ryd( 4p)     0.00009       1.53033
    18    C    1  dxy    Ryd( 3d)     0.00148       3.06990
    19    C    1  dxy    Ryd( 5d)     0.00018       4.07387
    20    C    1  dxy    Ryd( 4d)     0.00004       3.30158
    21    C    1  dxz    Ryd( 3d)     0.00007       1.51876
    22    C    1  dxz    Ryd( 5d)     0.00013       3.12376
    23    C    1  dxz    Ryd( 4d)     0.00002       2.07066
    24    C    1  dyz    Ryd( 3d)     0.00029       1.38651
    25    C    1  dyz    Ryd( 5d)     0.00006       3.17000
    26    C    1  dyz    Ryd( 4d)     0.00004       1.75604
    27    C    1  dx2y2  Ryd( 3d)     0.00116       2.99386
    28    C    1  dx2y2  Ryd( 5d)     0.00037       4.07845
    29    C    1  dx2y2  Ryd( 4d)     0.00009       3.05061
    30    C    1  dz2    Ryd( 3d)     0.00098       1.68672
    31    C    1  dz2    Ryd( 5d)     0.00022       4.10665
    32    C    1  dz2    Ryd( 4d)     0.00006       4.09663
    33    C    1  f(0)   Ryd( 4f)     0.00002       1.39773
    34    C    1  f(0)   Ryd( 5f)     0.00012       3.48977
    35    C    1  f(C1)  Ryd( 4f)     0.00125       2.07915
    36    C    1  f(C1)  Ryd( 5f)     0.00016       3.68788
    37    C    1  f(S1)  Ryd( 4f)     0.00056       1.82506
    38    C    1  f(S1)  Ryd( 5f)     0.00020       3.56648
    39    C    1  f(C2)  Ryd( 4f)     0.00022       1.43871
    40    C    1  f(C2)  Ryd( 5f)     0.00001       3.52822
    41    C    1  f(S2)  Ryd( 4f)     0.00028       1.45286
    42    C    1  f(S2)  Ryd( 5f)     0.00004       3.50892
    43    C    1  f(C3)  Ryd( 4f)     0.00036       3.70998
    44    C    1  f(C3)  Ryd( 5f)     0.00018       4.18019
    45    C    1  f(S3)  Ryd( 4f)     0.00111       1.83850
    46    C    1  f(S3)  Ryd( 5f)     0.00017       4.42720
 
    47    C    2  S      Cor( 1S)     1.99870     -10.40516
    48    C    2  S      Val( 2S)     0.92102      -0.12786
    49    C    2  S      Ryd( 4S)     0.00054       4.25401
    50    C    2  S      Ryd( 3S)     0.00009       1.51656
    51    C    2  px     Val( 2p)     1.08642      -0.09794
    52    C    2  px     Ryd( 3p)     0.00248       1.77751
    53    C    2  px     Ryd( 4p)     0.00011       2.33931
    54    C    2  py     Val( 2p)     1.13851      -0.09981
    55    C    2  py     Ryd( 3p)     0.00364       1.54295
    56    C    2  py     Ryd( 4p)     0.00010       2.22010
    57    C    2  pz     Val( 2p)     0.97107      -0.14477
    58    C    2  pz     Ryd( 3p)     0.00102       0.95444
    59    C    2  pz     Ryd( 4p)     0.00016       1.58540
    60    C    2  dxy    Ryd( 3d)     0.00185       2.69404
    61    C    2  dxy    Ryd( 5d)     0.00015       3.66340
    62    C    2  dxy    Ryd( 4d)     0.00011       3.11628
    63    C    2  dxz    Ryd( 3d)     0.00055       1.37808
    64    C    2  dxz    Ryd( 5d)     0.00010       2.97417
    65    C    2  dxz    Ryd( 4d)     0.00006       2.27861
    66    C    2  dyz    Ryd( 3d)     0.00125       1.22228
    67    C    2  dyz    Ryd( 5d)     0.00007       3.04946
    68    C    2  dyz    Ryd( 4d)     0.00003       1.78244
    69    C    2  dx2y2  Ryd( 4d)     0.00209       3.60488
    70    C    2  dx2y2  Ryd( 5d)     0.00043       4.05408
    71    C    2  dx2y2  Ryd( 3d)     0.00012       2.48223
    72    C    2  dz2    Ryd( 3d)     0.00488       1.33715
    73    C    2  dz2    Ryd( 5d)     0.00012       4.11102
    74    C    2  dz2    Ryd( 4d)     0.00032       2.60537
    75    C    2  f(0)   Ryd( 4f)     0.00052       1.59436
    76    C    2  f(0)   Ryd( 5f)     0.00007       3.30472
    77    C    2  f(C1)  Ryd( 4f)     0.00083       2.13256
    78    C    2  f(C1)  Ryd( 5f)     0.00017       3.47464
    79    C    2  f(S1)  Ryd( 4f)     0.00113       1.96969
    80    C    2  f(S1)  Ryd( 5f)     0.00012       3.37544
    81    C    2  f(C2)  Ryd( 4f)     0.00020       1.61588
    82    C    2  f(C2)  Ryd( 5f)     0.00003       3.32442
    83    C    2  f(S2)  Ryd( 4f)     0.00020       1.59975
    84    C    2  f(S2)  Ryd( 5f)     0.00003       3.28967
    85    C    2  f(C3)  Ryd( 4f)     0.00103       3.35379
    86    C    2  f(C3)  Ryd( 5f)     0.00008       4.16242
    87    C    2  f(S3)  Ryd( 4f)     0.00129       1.81397
    88    C    2  f(S3)  Ryd( 5f)     0.00020       4.13851
 
    89    C    3  S      Cor( 1S)     1.99886     -10.42050
    90    C    3  S      Val( 2S)     0.92341      -0.17462
    91    C    3  S      Ryd( 3S)     0.00185       1.46179
    92    C    3  S      Ryd( 4S)     0.00036       3.03807
    93    C    3  S      Ryd( 5S)     0.00007       3.12851
    94    C    3  px     Val( 2p)     1.04575      -0.12280
    95    C    3  px     Ryd( 4p)     0.00679       2.13302
    96    C    3  px     Ryd( 3p)     0.00028       1.05908
    97    C    3  px     Ryd( 5p)     0.00009       4.12294
    98    C    3  py     Val( 2p)     1.12453      -0.11672
    99    C    3  py     Ryd( 4p)     0.00506       1.34920
   100    C    3  py     Ryd( 3p)     0.00026       1.29703
   101    C    3  py     Ryd( 5p)     0.00020       2.79880
   102    C    3  pz     Val( 2p)     1.01744      -0.15654
   103    C    3  pz     Ryd( 3p)     0.00251       0.76061
   104    C    3  pz     Ryd( 4p)     0.00056       1.29074
   105    C    3  pz     Ryd( 5p)     0.00016       2.06022
   106    C    3  dxy    Ryd( 3d)     0.00142       2.44758
   107    C    3  dxy    Ryd( 4d)     0.00010       2.98054
   108    C    3  dxz    Ryd( 3d)     0.00067       1.36305
   109    C    3  dxz    Ryd( 4d)     0.00003       2.43445
   110    C    3  dyz    Ryd( 3d)     0.00014       1.35875
   111    C    3  dyz    Ryd( 4d)     0.00007       2.20533
   112    C    3  dx2y2  Ryd( 4d)     0.00144       2.98000
   113    C    3  dx2y2  Ryd( 3d)     0.00016       2.57183
   114    C    3  dz2    Ryd( 3d)     0.00081       1.19706
   115    C    3  dz2    Ryd( 4d)     0.00015       3.22837
   116    C    3  f(0)   Ryd( 4f)     0.00074       1.43127
   117    C    3  f(0)   Ryd( 5f)     0.00016       3.59771
   118    C    3  f(C1)  Ryd( 4f)     0.00163       2.09892
   119    C    3  f(C1)  Ryd( 5f)     0.00030       3.67708
   120    C    3  f(S1)  Ryd( 4f)     0.00213       1.85243
   121    C    3  f(S1)  Ryd( 5f)     0.00015       3.74803
   122    C    3  f(C2)  Ryd( 4f)     0.00060       1.41544
   123    C    3  f(C2)  Ryd( 5f)     0.00002       3.60908
   124    C    3  f(S2)  Ryd( 4f)     0.00039       1.33007
   125    C    3  f(S2)  Ryd( 5f)     0.00001       3.62845
   126    C    3  f(C3)  Ryd( 4f)     0.00113       3.18522
   127    C    3  f(C3)  Ryd( 5f)     0.00015       4.16530
   128    C    3  f(S3)  Ryd( 4f)     0.00269       1.96793
   129    C    3  f(S3)  Ryd( 5f)     0.00015       4.50717
 
   130    C    4  S      Cor( 1S)     1.99870     -10.40574
   131    C    4  S      Val( 2S)     0.91804      -0.12735
   132    C    4  S      Ryd( 4S)     0.00055       4.47091
   133    C    4  S      Ryd( 3S)     0.00004       1.61703
   134    C    4  px     Val( 2p)     1.09879      -0.09508
   135    C    4  px     Ryd( 4p)     0.00351       1.85579
   136    C    4  px     Ryd( 3p)     0.00013       1.36648
   137    C    4  px     Ryd( 5p)     0.00007       2.47670
   138    C    4  py     Val( 2p)     1.14912      -0.10169
   139    C    4  py     Ryd( 4p)     0.00547       1.77985
   140    C    4  py     Ryd( 3p)     0.00007       1.53986
   141    C    4  py     Ryd( 5p)     0.00010       2.30295
   142    C    4  pz     Val( 2p)     0.97951      -0.14248
   143    C    4  pz     Ryd( 4p)     0.00061       0.97130
   144    C    4  pz     Ryd( 3p)     0.00006       0.83212
   145    C    4  pz     Ryd( 5p)     0.00008       1.61762
   146    C    4  dxy    Ryd( 3d)     0.00221       2.70098
   147    C    4  dxy    Ryd( 5d)     0.00016       3.49121
   148    C    4  dxy    Ryd( 4d)     0.00016       3.05455
   149    C    4  dxz    Ryd( 3d)     0.00031       1.44181
   150    C    4  dxz    Ryd( 5d)     0.00015       2.83932
   151    C    4  dxz    Ryd( 4d)     0.00003       2.29599
   152    C    4  dyz    Ryd( 3d)     0.00068       1.20528
   153    C    4  dyz    Ryd( 5d)     0.00005       2.84055
   154    C    4  dyz    Ryd( 4d)     0.00004       1.98504
   155    C    4  dx2y2  Ryd( 4d)     0.00191       3.68546
   156    C    4  dx2y2  Ryd( 5d)     0.00041       3.79511
   157    C    4  dx2y2  Ryd( 3d)     0.00014       2.67190
   158    C    4  dz2    Ryd( 3d)     0.00479       1.42584
   159    C    4  dz2    Ryd( 5d)     0.00011       3.93401
   160    C    4  dz2    Ryd( 4d)     0.00024       2.61643
   161    C    4  f(0)   Ryd( 4f)     0.00012       1.57197
   162    C    4  f(0)   Ryd( 5f)     0.00014       3.37830
   163    C    4  f(C1)  Ryd( 4f)     0.00053       2.09669
   164    C    4  f(C1)  Ryd( 5f)     0.00026       3.46523
   165    C    4  f(S1)  Ryd( 4f)     0.00066       1.95352
   166    C    4  f(S1)  Ryd( 5f)     0.00015       3.43122
   167    C    4  f(C2)  Ryd( 4f)     0.00019       1.64928
   168    C    4  f(C2)  Ryd( 5f)     0.00003       3.39679
   169    C    4  f(S2)  Ryd( 4f)     0.00010       1.58918
   170    C    4  f(S2)  Ryd( 5f)     0.00005       3.36019
   171    C    4  f(C3)  Ryd( 4f)     0.00095       3.45462
   172    C    4  f(C3)  Ryd( 5f)     0.00008       4.13310
   173    C    4  f(S3)  Ryd( 4f)     0.00107       1.96422
   174    C    4  f(S3)  Ryd( 5f)     0.00031       4.13738
 
   175    C    5  S      Cor( 1S)     1.99913     -10.40207
   176    C    5  S      Val( 2S)     0.94176      -0.19014
   177    C    5  S      Ryd( 3S)     0.00225       1.62841
   178    C    5  S      Ryd( 5S)     0.00035       3.08250
   179    C    5  S      Ryd( 4S)     0.00004       2.41597
   180    C    5  px     Val( 2p)     1.09056      -0.08650
   181    C    5  px     Ryd( 4p)     0.00374       1.72686
   182    C    5  px     Ryd( 5p)     0.00027       2.92913
   183    C    5  px     Ryd( 3p)     0.00006       1.31999
   184    C    5  py     Val( 2p)     1.14194      -0.08834
   185    C    5  py     Ryd( 4p)     0.00467       1.80048
   186    C    5  py     Ryd( 5p)     0.00012       2.32216
   187    C    5  py     Ryd( 3p)     0.00006       1.24697
   188    C    5  pz     Val( 2p)     0.94620      -0.13893
   189    C    5  pz     Ryd( 4p)     0.00088       0.98255
   190    C    5  pz     Ryd( 5p)     0.00008       1.67117
   191    C    5  pz     Ryd( 3p)     0.00005       0.71790
   192    C    5  dxy    Ryd( 3d)     0.00184       2.66131
   193    C    5  dxy    Ryd( 5d)     0.00013       3.76328
   194    C    5  dxy    Ryd( 4d)     0.00006       3.67676
   195    C    5  dxz    Ryd( 3d)     0.00061       1.57979
   196    C    5  dxz    Ryd( 5d)     0.00007       2.96201
   197    C    5  dxz    Ryd( 4d)     0.00001       2.29894
   198    C    5  dyz    Ryd( 3d)     0.00034       1.37180
   199    C    5  dyz    Ryd( 5d)     0.00006       3.01669
   200    C    5  dyz    Ryd( 4d)     0.00002       1.97434
   201    C    5  dx2y2  Ryd( 3d)     0.00129       2.90008
   202    C    5  dx2y2  Ryd( 5d)     0.00030       3.83741
   203    C    5  dx2y2  Ryd( 4d)     0.00008       3.33173
   204    C    5  dz2    Ryd( 3d)     0.00096       1.61191
   205    C    5  dz2    Ryd( 4d)     0.00018       3.99629
   206    C    5  dz2    Ryd( 5d)     0.00007       4.19974
   207    C    5  f(0)   Ryd( 4f)     0.00017       1.43872
   208    C    5  f(0)   Ryd( 5f)     0.00013       3.48767
   209    C    5  f(C1)  Ryd( 4f)     0.00122       2.07230
   210    C    5  f(C1)  Ryd( 5f)     0.00016       3.69161
   211    C    5  f(S1)  Ryd( 4f)     0.00048       1.88188
   212    C    5  f(S1)  Ryd( 5f)     0.00020       3.56747
   213    C    5  f(C2)  Ryd( 4f)     0.00021       1.47126
   214    C    5  f(C2)  Ryd( 5f)     0.00002       3.53077
   215    C    5  f(S2)  Ryd( 4f)     0.00021       1.49618
   216    C    5  f(S2)  Ryd( 5f)     0.00004       3.51361
   217    C    5  f(C3)  Ryd( 4f)     0.00042       3.62938
   218    C    5  f(C3)  Ryd( 5f)     0.00017       4.14806
   219    C    5  f(S3)  Ryd( 4f)     0.00111       1.87624
   220    C    5  f(S3)  Ryd( 5f)     0.00020       4.50549
 
   221    C    6  S      Cor( 1S)     1.99883     -10.38842
   222    C    6  S      Val( 2S)     0.88939      -0.13233
   223    C    6  S      Ryd( 3S)     0.00104       2.03961
   224    C    6  S      Ryd( 5S)     0.00010       4.03387
   225    C    6  S      Ryd( 4S)     0.00004       2.53775
   226    C    6  px     Val( 2p)     1.10262      -0.12298
   227    C    6  px     Ryd( 4p)     0.00631       2.43462
   228    C    6  px     Ryd( 5p)     0.00005       2.43650
   229    C    6  px     Ryd( 3p)     0.00006       1.12720
   230    C    6  py     Val( 2p)     1.13965      -0.12143
   231    C    6  py     Ryd( 5p)     0.00464       2.15061
   232    C    6  py     Ryd( 4p)     0.00011       2.04269
   233    C    6  py     Ryd( 3p)     0.00006       1.28775
   234    C    6  pz     Val( 2p)     1.05206      -0.15082
   235    C    6  pz     Ryd( 4p)     0.00100       0.96365
   236    C    6  pz     Ryd( 5p)     0.00009       1.88906
   237    C    6  pz     Ryd( 3p)     0.00004       0.67711
   238    C    6  dxy    Ryd( 3d)     0.00077       3.30975
   239    C    6  dxy    Ryd( 4d)     0.00043       3.70038
   240    C    6  dxy    Ryd( 5d)     0.00007       5.71446
   241    C    6  dxz    Ryd( 3d)     0.00018       1.55792
   242    C    6  dxz    Ryd( 5d)     0.00012       3.03211
   243    C    6  dxz    Ryd( 4d)     0.00004       2.21512
   244    C    6  dyz    Ryd( 3d)     0.00081       1.46840
   245    C    6  dyz    Ryd( 5d)     0.00002       2.94247
   246    C    6  dyz    Ryd( 4d)     0.00006       2.32772
   247    C    6  dx2y2  Ryd( 3d)     0.00222       3.51510
   248    C    6  dx2y2  Ryd( 4d)     0.00007       4.12517
   249    C    6  dx2y2  Ryd( 5d)     0.00002       4.40425
   250    C    6  dz2    Ryd( 3d)     0.00077       1.92500
   251    C    6  dz2    Ryd( 5d)     0.00016       4.10347
   252    C    6  dz2    Ryd( 4d)     0.00009       3.88310
   253    C    6  f(0)   Ryd( 4f)     0.00042       1.63725
   254    C    6  f(0)   Ryd( 5f)     0.00021       3.40151
   255    C    6  f(C1)  Ryd( 4f)     0.00045       2.11293
   256    C    6  f(C1)  Ryd( 5f)     0.00049       3.57039
   257    C    6  f(S1)  Ryd( 4f)     0.00078       1.97883
   258    C    6  f(S1)  Ryd( 5f)     0.00032       3.53231
   259    C    6  f(C2)  Ryd( 4f)     0.00045       1.64149
   260    C    6  f(C2)  Ryd( 5f)     0.00003       3.31895
   261    C    6  f(S2)  Ryd( 4f)     0.00073       1.53393
   262    C    6  f(S2)  Ryd( 5f)     0.00006       3.41239
   263    C    6  f(C3)  Ryd( 4f)     0.00127       3.22305
   264    C    6  f(C3)  Ryd( 5f)     0.00007       4.73560
   265    C    6  f(S3)  Ryd( 4f)     0.00160       2.63773
   266    C    6  f(S3)  Ryd( 5f)     0.00031       4.19605
 
   267    C    7  S      Cor( 1S)     1.99907     -10.54558
   268    C    7  S      Val( 2S)     0.77958      -0.11021
   269    C    7  S      Ryd( 3S)     0.00361       2.01927
   270    C    7  S      Ryd( 4S)     0.00013       2.10028
   271    C    7  S      Ryd( 5S)     0.00007       2.56644
   272    C    7  px     Val( 2p)     0.91808      -0.05708
   273    C    7  px     Ryd( 5p)     0.00593       1.61770
   274    C    7  px     Ryd( 3p)     0.00024       1.14954
   275    C    7  px     Ryd( 4p)     0.00003       1.25094
   276    C    7  py     Val( 2p)     0.72675      -0.03402
   277    C    7  py     Ryd( 4p)     0.01275       1.60739
   278    C    7  py     Ryd( 3p)     0.00009       1.22252
   279    C    7  py     Ryd( 5p)     0.00006       1.88351
   280    C    7  pz     Val( 2p)     0.75601      -0.13452
   281    C    7  pz     Ryd( 5p)     0.00060       1.13721
   282    C    7  pz     Ryd( 3p)     0.00009       0.71578
   283    C    7  pz     Ryd( 4p)     0.00004       1.00593
   284    C    7  dxy    Ryd( 3d)     0.00055       3.06462
   285    C    7  dxy    Ryd( 4d)     0.00034       3.23245
   286    C    7  dxy    Ryd( 5d)     0.00007       3.38518
   287    C    7  dxz    Ryd( 3d)     0.00122       2.20558
   288    C    7  dxz    Ryd( 4d)     0.00004       2.24214
   289    C    7  dxz    Ryd( 5d)     0.00005       2.32747
   290    C    7  dyz    Ryd( 3d)     0.00195       2.24013
   291    C    7  dyz    Ryd( 4d)     0.00005       2.29452
   292    C    7  dyz    Ryd( 5d)     0.00005       2.49383
   293    C    7  dx2y2  Ryd( 4d)     0.00230       3.04528
   294    C    7  dx2y2  Ryd( 3d)     0.00019       2.67108
   295    C    7  dx2y2  Ryd( 5d)     0.00007       3.68714
   296    C    7  dz2    Ryd( 3d)     0.00051       2.92861
   297    C    7  dz2    Ryd( 4d)     0.00059       3.26862
   298    C    7  dz2    Ryd( 5d)     0.00010       3.70256
   299    C    7  f(0)   Ryd( 5f)     0.00010       3.50734
   300    C    7  f(0)   Ryd( 4f)     0.00002       2.45472
   301    C    7  f(C1)  Ryd( 5f)     0.00016       3.75276
   302    C    7  f(C1)  Ryd( 4f)     0.00003       3.35015
   303    C    7  f(S1)  Ryd( 5f)     0.00007       3.66223
   304    C    7  f(S1)  Ryd( 4f)     0.00004       3.39178
   305    C    7  f(C2)  Ryd( 5f)     0.00000       3.40505
   306    C    7  f(C2)  Ryd( 4f)     0.00006       2.60157
   307    C    7  f(S2)  Ryd( 5f)     0.00003       3.63129
   308    C    7  f(S2)  Ryd( 4f)     0.00002       2.89060
   309    C    7  f(C3)  Ryd( 4f)     0.00006       4.65909
   310    C    7  f(C3)  Ryd( 5f)     0.00003       8.46821
   311    C    7  f(S3)  Ryd( 5f)     0.00007       4.55596
   312    C    7  f(S3)  Ryd( 4f)     0.00004       3.93285
 
   313    O    8  S      Cor( 1S)     1.99979     -19.33435
   314    O    8  S      Val( 2S)     1.70658      -1.00901
   315    O    8  S      Ryd( 4S)     0.00060       2.77149
   316    O    8  S      Ryd( 3S)     0.00019       1.84234
   317    O    8  S      Ryd( 5S)     0.00001       8.58523
   318    O    8  px     Val( 2p)     1.76617      -0.34671
   319    O    8  px     Ryd( 4p)     0.00113       1.41039
   320    O    8  px     Ryd( 3p)     0.00012       0.98776
   321    O    8  px     Ryd( 5p)     0.00003       4.57488
   322    O    8  py     Val( 2p)     1.65128      -0.34528
   323    O    8  py     Ryd( 4p)     0.00122       1.43132
   324    O    8  py     Ryd( 3p)     0.00009       0.87355
   325    O    8  py     Ryd( 5p)     0.00004       5.01939
   326    O    8  pz     Val( 2p)     1.44803      -0.29654
   327    O    8  pz     Ryd( 4p)     0.00054       1.04825
   328    O    8  pz     Ryd( 3p)     0.00001       0.66439
   329    O    8  pz     Ryd( 5p)     0.00001       4.00811
   330    O    8  dxy    Ryd( 3d)     0.00765       2.07638
   331    O    8  dxy    Ryd( 4d)     0.00010       3.06202
   332    O    8  dxy    Ryd( 5d)     0.00002       6.78038
   333    O    8  dxz    Ryd( 3d)     0.00210       1.47438
   334    O    8  dxz    Ryd( 4d)     0.00001       1.51650
   335    O    8  dxz    Ryd( 5d)     0.00001       6.58726
   336    O    8  dyz    Ryd( 4d)     0.00455       1.54745
   337    O    8  dyz    Ryd( 3d)     0.00003       1.52302
   338    O    8  dyz    Ryd( 5d)     0.00002       6.56657
   339    O    8  dx2y2  Ryd( 3d)     0.00566       1.84097
   340    O    8  dx2y2  Ryd( 4d)     0.00006       1.99570
   341    O    8  dx2y2  Ryd( 5d)     0.00005       6.70088
   342    O    8  dz2    Ryd( 3d)     0.00277       1.65773
   343    O    8  dz2    Ryd( 4d)     0.00009       2.41094
   344    O    8  dz2    Ryd( 5d)     0.00001       6.66514
   345    O    8  f(0)   Ryd( 4f)     0.00011       3.21786
   346    O    8  f(0)   Ryd( 5f)     0.00000       5.41049
   347    O    8  f(C1)  Ryd( 4f)     0.00008       3.41943
   348    O    8  f(C1)  Ryd( 5f)     0.00002       5.53646
   349    O    8  f(S1)  Ryd( 4f)     0.00010       3.66872
   350    O    8  f(S1)  Ryd( 5f)     0.00001       5.69941
   351    O    8  f(C2)  Ryd( 4f)     0.00006       3.16438
   352    O    8  f(C2)  Ryd( 5f)     0.00001       5.62922
   353    O    8  f(S2)  Ryd( 4f)     0.00023       3.27407
   354    O    8  f(S2)  Ryd( 5f)     0.00001       5.52368
   355    O    8  f(C3)  Ryd( 4f)     0.00036       4.12502
   356    O    8  f(C3)  Ryd( 5f)     0.00001       6.01234
   357    O    8  f(S3)  Ryd( 4f)     0.00038       3.70594
   358    O    8  f(S3)  Ryd( 5f)     0.00002       5.87537
 
   359    O    9  S      Cor( 1S)     1.99978     -19.46510
   360    O    9  S      Val( 2S)     1.67705      -1.04115
   361    O    9  S      Ryd( 3S)     0.00040       1.60515
   362    O    9  S      Ryd( 4S)     0.00009       2.51374
   363    O    9  S      Ryd( 5S)     0.00001       9.42944
   364    O    9  px     Val( 2p)     1.47579      -0.36675
   365    O    9  px     Ryd( 3p)     0.00062       1.20273
   366    O    9  px     Ryd( 4p)     0.00010       1.25137
   367    O    9  px     Ryd( 5p)     0.00003       4.81402
   368    O    9  py     Val( 2p)     1.68414      -0.40766
   369    O    9  py     Ryd( 4p)     0.00081       1.07795
   370    O    9  py     Ryd( 3p)     0.00008       0.97273
   371    O    9  py     Ryd( 5p)     0.00006       4.60158
   372    O    9  pz     Val( 2p)     1.84448      -0.41898
   373    O    9  pz     Ryd( 4p)     0.00105       0.88574
   374    O    9  pz     Ryd( 3p)     0.00001       0.73923
   375    O    9  pz     Ryd( 5p)     0.00000       3.90244
   376    O    9  dxy    Ryd( 3d)     0.00560       1.97948
   377    O    9  dxy    Ryd( 4d)     0.00012       2.44118
   378    O    9  dxy    Ryd( 5d)     0.00004       6.71107
   379    O    9  dxz    Ryd( 3d)     0.00035       1.20448
   380    O    9  dxz    Ryd( 4d)     0.00007       2.00827
   381    O    9  dxz    Ryd( 5d)     0.00001       6.33413
   382    O    9  dyz    Ryd( 3d)     0.00442       1.34308
   383    O    9  dyz    Ryd( 4d)     0.00002       1.75848
   384    O    9  dyz    Ryd( 5d)     0.00003       6.36242
   385    O    9  dx2y2  Ryd( 3d)     0.00413       1.78615
   386    O    9  dx2y2  Ryd( 4d)     0.00007       2.22710
   387    O    9  dx2y2  Ryd( 5d)     0.00006       6.74643
   388    O    9  dz2    Ryd( 3d)     0.00301       1.53701
   389    O    9  dz2    Ryd( 4d)     0.00012       2.46144
   390    O    9  dz2    Ryd( 5d)     0.00001       6.58937
   391    O    9  f(0)   Ryd( 4f)     0.00049       2.80967
   392    O    9  f(0)   Ryd( 5f)     0.00001       5.88440
   393    O    9  f(C1)  Ryd( 4f)     0.00022       3.42660
   394    O    9  f(C1)  Ryd( 5f)     0.00001       6.18280
   395    O    9  f(S1)  Ryd( 4f)     0.00015       3.37492
   396    O    9  f(S1)  Ryd( 5f)     0.00001       6.09874
   397    O    9  f(C2)  Ryd( 4f)     0.00005       2.86947
   398    O    9  f(C2)  Ryd( 5f)     0.00001       6.04805
   399    O    9  f(S2)  Ryd( 4f)     0.00005       2.88554
   400    O    9  f(S2)  Ryd( 5f)     0.00001       5.92968
   401    O    9  f(C3)  Ryd( 4f)     0.00011       4.46388
   402    O    9  f(C3)  Ryd( 5f)     0.00005       6.51073
   403    O    9  f(S3)  Ryd( 4f)     0.00007       3.80083
   404    O    9  f(S3)  Ryd( 5f)     0.00002       6.40817
 
   405    F   10  S      Cor( 1S)     1.99992     -25.01647
   406    F   10  S      Val( 2S)     1.84477      -1.45227
   407    F   10  S      Ryd( 3S)     0.00018       1.34783
   408    F   10  S      Ryd( 4S)     0.00012       6.45030
   409    F   10  S      Ryd( 5S)     0.00001       9.49945
   410    F   10  px     Val( 2p)     1.91215      -0.54868
   411    F   10  px     Ryd( 3p)     0.00042       0.84269
   412    F   10  px     Ryd( 4p)     0.00037       1.00435
   413    F   10  px     Ryd( 5p)     0.00001       5.15204
   414    F   10  py     Val( 2p)     1.85559      -0.54200
   415    F   10  py     Ryd( 3p)     0.00040       0.82137
   416    F   10  py     Ryd( 4p)     0.00026       0.90754
   417    F   10  py     Ryd( 5p)     0.00004       5.18162
   418    F   10  pz     Val( 2p)     1.71963      -0.52547
   419    F   10  pz     Ryd( 3p)     0.00101       0.80786
   420    F   10  pz     Ryd( 4p)     0.00018       1.04657
   421    F   10  pz     Ryd( 5p)     0.00008       5.48016
   422    F   10  dxy    Ryd( 4d)     0.00042       2.82239
   423    F   10  dxy    Ryd( 3d)     0.00004       2.31732
   424    F   10  dxy    Ryd( 5d)     0.00000       8.65988
   425    F   10  dxz    Ryd( 4d)     0.00092       3.14516
   426    F   10  dxz    Ryd( 3d)     0.00003       2.73737
   427    F   10  dxz    Ryd( 5d)     0.00000       8.65975
   428    F   10  dyz    Ryd( 4d)     0.00146       3.34083
   429    F   10  dyz    Ryd( 3d)     0.00010       3.24857
   430    F   10  dyz    Ryd( 5d)     0.00001       8.65508
   431    F   10  dx2y2  Ryd( 4d)     0.00037       2.77347
   432    F   10  dx2y2  Ryd( 3d)     0.00009       2.29417
   433    F   10  dx2y2  Ryd( 5d)     0.00001       8.66110
   434    F   10  dz2    Ryd( 4d)     0.00117       3.27750
   435    F   10  dz2    Ryd( 3d)     0.00005       2.87575
   436    F   10  dz2    Ryd( 5d)     0.00001       8.71304
   437    F   10  f(0)   Ryd( 4f)     0.00008       3.79225
   438    F   10  f(0)   Ryd( 5f)     0.00002       8.08547
   439    F   10  f(C1)  Ryd( 4f)     0.00008       3.77586
   440    F   10  f(C1)  Ryd( 5f)     0.00002       7.99919
   441    F   10  f(S1)  Ryd( 4f)     0.00008       3.83951
   442    F   10  f(S1)  Ryd( 5f)     0.00003       8.04786
   443    F   10  f(C2)  Ryd( 4f)     0.00008       3.74576
   444    F   10  f(C2)  Ryd( 5f)     0.00002       7.92768
   445    F   10  f(S2)  Ryd( 4f)     0.00006       3.80128
   446    F   10  f(S2)  Ryd( 5f)     0.00002       7.90133
   447    F   10  f(C3)  Ryd( 4f)     0.00003       3.68251
   448    F   10  f(C3)  Ryd( 5f)     0.00001       7.80636
   449    F   10  f(S3)  Ryd( 4f)     0.00002       3.68717
   450    F   10  f(S3)  Ryd( 5f)     0.00000       7.82689
 
   451    C   11  S      Cor( 1S)     1.99930     -10.71550
   452    C   11  S      Val( 2S)     0.78677      -0.24388
   453    C   11  S      Ryd( 3S)     0.00473       1.84049
   454    C   11  S      Ryd( 4S)     0.00076       2.54908
   455    C   11  S      Ryd( 5S)     0.00006       3.07961
   456    C   11  px     Val( 2p)     0.89778      -0.15390
   457    C   11  px     Ryd( 3p)     0.00614       1.57089
   458    C   11  px     Ryd( 4p)     0.00007       2.52783
   459    C   11  py     Val( 2p)     0.60297      -0.11019
   460    C   11  py     Ryd( 3p)     0.01062       1.57373
   461    C   11  py     Ryd( 4p)     0.00009       2.45548
   462    C   11  pz     Val( 2p)     0.60815      -0.11021
   463    C   11  pz     Ryd( 3p)     0.00929       1.46795
   464    C   11  pz     Ryd( 4p)     0.00010       2.30185
   465    C   11  dxy    Ryd( 4d)     0.00159       2.57578
   466    C   11  dxy    Ryd( 3d)     0.00049       2.32523
   467    C   11  dxy    Ryd( 5d)     0.00009       2.86027
   468    C   11  dxz    Ryd( 4d)     0.00233       2.19827
   469    C   11  dxz    Ryd( 3d)     0.00045       2.12773
   470    C   11  dxz    Ryd( 5d)     0.00006       2.20004
   471    C   11  dyz    Ryd( 4d)     0.00413       2.45722
   472    C   11  dyz    Ryd( 5d)     0.00021       2.48522
   473    C   11  dyz    Ryd( 3d)     0.00006       2.42842
   474    C   11  dx2y2  Ryd( 5d)     0.00313       2.82213
   475    C   11  dx2y2  Ryd( 3d)     0.00014       2.36888
   476    C   11  dx2y2  Ryd( 4d)     0.00009       2.59665
   477    C   11  dz2    Ryd( 4d)     0.00377       2.49224
   478    C   11  dz2    Ryd( 3d)     0.00028       2.44932
   479    C   11  dz2    Ryd( 5d)     0.00008       2.57004
   480    C   11  f(0)   Ryd( 5f)     0.00058       3.53048
   481    C   11  f(0)   Ryd( 4f)     0.00002       2.83568
   482    C   11  f(C1)  Ryd( 5f)     0.00020       4.26842
   483    C   11  f(C1)  Ryd( 4f)     0.00007       4.10028
   484    C   11  f(S1)  Ryd( 5f)     0.00018       4.17757
   485    C   11  f(S1)  Ryd( 4f)     0.00014       3.91365
   486    C   11  f(C2)  Ryd( 5f)     0.00047       3.54622
   487    C   11  f(C2)  Ryd( 4f)     0.00007       2.65833
   488    C   11  f(S2)  Ryd( 5f)     0.00027       3.96556
   489    C   11  f(S2)  Ryd( 4f)     0.00001       3.21614
   490    C   11  f(C3)  Ryd( 5f)     0.00014       4.54076
   491    C   11  f(C3)  Ryd( 4f)     0.00011       3.53098
   492    C   11  f(S3)  Ryd( 5f)     0.00043       3.94639
   493    C   11  f(S3)  Ryd( 4f)     0.00003       2.97212
 
   494    F   12  S      Cor( 1S)     1.99992     -25.02168
   495    F   12  S      Val( 2S)     1.84206      -1.45492
   496    F   12  S      Ryd( 3S)     0.00015       1.50252
   497    F   12  S      Ryd( 4S)     0.00012       5.47360
   498    F   12  S      Ryd( 5S)     0.00002       9.91164
   499    F   12  px     Val( 2p)     1.88009      -0.54862
   500    F   12  px     Ryd( 3p)     0.00055       0.93462
   501    F   12  px     Ryd( 4p)     0.00040       0.93553
   502    F   12  px     Ryd( 5p)     0.00001       5.21528
   503    F   12  py     Val( 2p)     1.66341      -0.52291
   504    F   12  py     Ryd( 3p)     0.00094       0.90209
   505    F   12  py     Ryd( 4p)     0.00011       1.01915
   506    F   12  py     Ryd( 5p)     0.00010       5.70672
   507    F   12  pz     Val( 2p)     1.94324      -0.55700
   508    F   12  pz     Ryd( 4p)     0.00020       0.85396
   509    F   12  pz     Ryd( 3p)     0.00032       0.75104
   510    F   12  pz     Ryd( 5p)     0.00000       4.92064
   511    F   12  dxy    Ryd( 4d)     0.00131       3.53320
   512    F   12  dxy    Ryd( 3d)     0.00003       3.38364
   513    F   12  dxy    Ryd( 5d)     0.00001       8.76617
   514    F   12  dxz    Ryd( 4d)     0.00025       2.61120
   515    F   12  dxz    Ryd( 3d)     0.00005       1.97747
   516    F   12  dxz    Ryd( 5d)     0.00000       8.58726
   517    F   12  dyz    Ryd( 4d)     0.00065       3.07055
   518    F   12  dyz    Ryd( 3d)     0.00003       2.42654
   519    F   12  dyz    Ryd( 5d)     0.00001       8.69307
   520    F   12  dx2y2  Ryd( 4d)     0.00140       3.33730
   521    F   12  dx2y2  Ryd( 3d)     0.00006       3.07988
   522    F   12  dx2y2  Ryd( 5d)     0.00001       8.77911
   523    F   12  dz2    Ryd( 4d)     0.00065       2.88164
   524    F   12  dz2    Ryd( 3d)     0.00013       2.68178
   525    F   12  dz2    Ryd( 5d)     0.00000       8.62830
   526    F   12  f(0)   Ryd( 4f)     0.00007       3.66508
   527    F   12  f(0)   Ryd( 5f)     0.00001       7.77558
   528    F   12  f(C1)  Ryd( 4f)     0.00001       3.66976
   529    F   12  f(C1)  Ryd( 5f)     0.00000       7.73915
   530    F   12  f(S1)  Ryd( 4f)     0.00006       3.78101
   531    F   12  f(S1)  Ryd( 5f)     0.00002       7.99754
   532    F   12  f(C2)  Ryd( 4f)     0.00004       3.70650
   533    F   12  f(C2)  Ryd( 5f)     0.00001       7.99626
   534    F   12  f(S2)  Ryd( 4f)     0.00007       3.70120
   535    F   12  f(S2)  Ryd( 5f)     0.00002       7.90689
   536    F   12  f(C3)  Ryd( 4f)     0.00007       3.89830
   537    F   12  f(C3)  Ryd( 5f)     0.00004       8.13414
   538    F   12  f(S3)  Ryd( 4f)     0.00010       3.82429
   539    F   12  f(S3)  Ryd( 5f)     0.00002       8.11901
 
   540    F   13  S      Cor( 1S)     1.99992     -25.01647
   541    F   13  S      Val( 2S)     1.84477      -1.45227
   542    F   13  S      Ryd( 3S)     0.00018       1.34718
   543    F   13  S      Ryd( 4S)     0.00013       6.45106
   544    F   13  S      Ryd( 5S)     0.00001       9.49932
   545    F   13  px     Val( 2p)     1.91215      -0.54868
   546    F   13  px     Ryd( 3p)     0.00042       0.84260
   547    F   13  px     Ryd( 4p)     0.00037       1.00440
   548    F   13  px     Ryd( 5p)     0.00001       5.15200
   549    F   13  py     Val( 2p)     1.85571      -0.54201
   550    F   13  py     Ryd( 3p)     0.00040       0.82130
   551    F   13  py     Ryd( 4p)     0.00026       0.90764
   552    F   13  py     Ryd( 5p)     0.00003       5.18125
   553    F   13  pz     Val( 2p)     1.71951      -0.52545
   554    F   13  pz     Ryd( 3p)     0.00101       0.80775
   555    F   13  pz     Ryd( 4p)     0.00018       1.04676
   556    F   13  pz     Ryd( 5p)     0.00008       5.48042
[...]
 0.0004461,0.367365,-1.1157485,0.0000748,-0.000433,0.0000173,-0.3657185
 ,-0.9933712,-0.494172,-0.000699,-0.5011234,-0.9632016,-0.0006193,-0.00
 06909,-0.0006063,-0.3571621,-0.4109476,0.2011717,0.2440097,0.1509215,-
 0.6830067,-0.2156341,0.2267675,-0.2445522,-0.6623565,1.4693355,-0.0875
 474,-0.0001395,-0.0441073,2.2213326,0.0001648,-0.0001242,0.0001033,1.5
 994301,-0.6931383,-0.2769184,-0.0005209,-0.2733741,-0.6902008,-0.00041
 52,-0.0005134,-0.0004069,-0.2772117,-0.4099951,0.2008332,-0.243373,0.1
 506309,-0.6833326,0.2159246,-0.2261726,0.2449705,-0.6630284,0.0452949,
 0.0168992,-0.0000647,0.0293809,0.0965427,0.0000149,-0.0000613,0.000003
 ,0.1274444,0.0347408,-0.0375223,-0.0000954,-0.0332756,0.070158,-0.0000
 474,-0.0000963,-0.0000516,0.1329294,0.0192009,0.0453637,-0.0000824,0.0
 374314,0.055075,0.0000085,-0.0000825,0.0000145,0.1313769,0.0374529,-0.
 0344827,-0.0000896,-0.0319748,0.0824569,-0.0000428,-0.000088,-0.000046
 2,0.1294634,0.2743778,0.1090686,-0.0000147,0.0777886,0.36115,0.0000755
 ,-0.0000244,0.0001023,0.3313241\Polar=104.1188701,-2.9086396,137.09321
 7,0.0346127,0.0211638,62.5342727\Quadrupole=2.6116267,-1.5968375,-1.01
 47892,6.2205059,0.0050396,0.0052196\PG=C01 [X(C8H5F3O2)]\NImag=0\\0.73
 458863,-0.03881600,0.71071774,0.00049205,0.00014930,0.14438095,-0.1336
 4999,-0.02938810,-0.00006772,0.73264080,0.04871762,-0.34738234,-0.0000
 4909,0.04353614,0.70912367,-0.00004244,-0.00011546,-0.06530961,0.00052
 207,0.00022103,0.13895341,0.03340596,0.09340449,0.00005457,-0.30074110
 ,0.03923363,-0.00019169,0.72333459,0.03488144,-0.01981833,0.00002192,0
 .11922340,-0.17039929,0.00006710,-0.00921825,0.67212089,0.00003526,0.0
 0007177,0.00476568,-0.00016515,-0.00000098,-0.06245779,0.00046038,0.00
 014552,0.18106498,-0.01749439,-0.03437246,-0.00002171,-0.06181829,0.02
 403800,-0.00005209,-0.27598958,-0.12703336,-0.00021997,0.73066640,-0.0
 3370037,-0.06651515,-0.00004854,-0.03719762,0.07658306,-0.00000912,-0.
 04757867,-0.18385246,-0.00007823,-0.04023967,0.70812891,-0.00002180,-0
 .00004965,-0.00501366,-0.00007206,0.00004319,0.00835402,-0.00019360,-0
 .00014615,-0.06610678,0.00049082,0.00014928,0.13896130,-0.06034819,-0.
 03555980,-0.00006924,-0.02446626,0.03773045,-0.00000379,0.04733562,-0.
 02548689,0.00002761,-0.13354161,-0.02724665,-0.00006830,0.72569227,0.0
 2152849,0.07517667,0.00004024,0.03839911,-0.05953643,0.00001488,-0.085
 89051,-0.03517046,-0.00008639,0.05158596,-0.35323423,-0.00004890,0.046
 07175,0.71504650,-0.00005073,-0.00000850,0.00724745,-0.00000385,0.0000
 1479,-0.00545188,0.00000765,-0.00003487,0.00584921,-0.00004267,-0.0001
 1653,-0.06430701,0.00051229,0.00022416,0.14293864,-0.27986160,-0.05463
 917,-0.00019958,0.04597913,-0.08020959,0.00000714,-0.07927586,-0.00606
 514,-0.00006389,0.03412626,0.08823251,0.00005181,-0.29303145,0.0392645
 2,-0.00018151,0.72584001,-0.12562611,-0.18220681,-0.00014457,-0.022928
 97,-0.03395531,-0.00003280,-0.00488930,-0.00349091,-0.00000357,0.03060
 810,-0.02270249,0.00001644,0.11009552,-0.16401274,0.00006213,0.0038309
 0,0.65615523,-0.00022233,-0.00008390,-0.06701873,0.00002604,-0.0000817
 2,0.00682651,-0.00006363,-0.00000401,-0.00666047,0.00003274,0.00006555
 ,0.00738355,-0.00015875,0.00000161,-0.06551542,0.00049409,0.00016606,0
 .14882552,0.01375107,-0.02331157,0.00000211,-0.00501157,-0.00767034,-0
 .00001406,-0.00535480,0.00008693,-0.00000384,-0.00591727,0.00518470,-0
 .00001062,0.00703633,0.02773707,0.00001447,-0.09781859,-0.00421171,-0.
 00001181,0.91087790,-0.01386125,-0.02773816,-0.00002147,-0.00331302,0.
 00306444,-0.00000451,0.00015120,0.00395042,0.00000211,0.00177273,0.004
 41082,0.00000023,0.01493032,-0.01388395,0.00000813,0.00712859,-0.20530
 705,-0.00003332,-0.18415730,0.73551749,0.00000540,-0.00002958,0.002394
 98,-0.00001265,-0.00000832,0.00844590,-0.00000383,0.00000159,-0.000804
 87,-0.00001163,0.00000311,0.00851179,0.00001014,0.00001889,0.00065242,
 -0.00000822,-0.00004139,-0.08541630,0.00054011,0.00000080,0.21661815,-
 0.00668856,-0.00522334,-0.00000748,0.00113672,0.00175818,0.00000235,0.
 00053208,0.00017203,0.00000049,0.00058453,0.00088198,0.00000233,0.0026
 9870,0.00106405,0.00000059,-0.01100475,0.02816946,-0.00001954,-0.58938
 905,0.28854016,-0.00035129,0.71399810,0.00348166,-0.00073218,0.0000026
 8,0.00067009,0.00108582,0.00000123,0.00159224,-0.00152302,0.00000069,0
 .00156858,-0.00296599,0.00000090,-0.00667505,-0.00602092,-0.00000837,0
 .04719142,-0.03054639,0.00002443,0.27907612,-0.28872108,0.00017681,-0.
 32580267,0.28918115,-0.00000486,-0.00000484,0.00018416,0.00000197,0.00
 000218,-0.00090085,0.00000090,-0.00000037,0.00010618,0.00000244,0.0000
 0038,-0.00177523,-0.00000177,-0.00000161,0.00237077,-0.00001345,0.0000
 0739,0.02176706,-0.00035456,0.00018539,-0.07978478,0.00048609,-0.00020
 231,0.03362898,0.00132789,0.00068041,0.00000032,0.00099054,-0.00000660
 ,0.00000128,0.00029058,-0.00064615,-0.00000010,0.00085841,-0.00104001,
 0.00000102,-0.00411539,0.00106756,-0.00000356,-0.00180462,-0.01146722,
 -0.00001507,-0.23398417,-0.05751899,-0.00016072,-0.11507990,-0.0099168
 4,-0.00012683,0.41743826,0.00585333,-0.00516120,0.00000296,-0.00138839
 ,-0.00230443,-0.00000179,-0.00131494,-0.00137222,-0.00000170,-0.000471
 46,0.00063855,0.00000007,-0.00114406,-0.00486779,-0.00000264,-0.041443
 49,-0.03124530,-0.00004853,-0.08482708,-0.17741262,-0.00010638,0.00124
 129,0.03926746,0.00000394,0.00131759,0.66854391,0.00000189,-0.00000139
 ,0.00124312,0.00000088,-0.00000057,-0.00052424,-0.00000024,-0.00000100
 ,0.00006925,0.00000120,-0.00000042,-0.00074572,-0.00000419,-0.00000072
 ,0.00039660,-0.00002464,-0.00002360,0.01190658,-0.00016855,-0.00008296
 ,-0.06567238,-0.00012368,-0.00000558,0.02980943,0.00032282,0.00019439,
 0.03862058,0.00021017,-0.00033823,-0.00092549,0.00053049,0.00095970,0.
 00002909,-0.00014289,0.00951340,0.01567330,-0.00219883,-0.00006702,-0.
 00054081,0.00044049,0.00095402,-0.00121727,0.00050570,0.00082147,0.000
 19340,-0.00005213,-0.00136036,0.00022828,-0.00012029,0.00050096,-0.000
 05618,0.00037623,0.00054018,-0.00003664,0.16315232,0.00076502,-0.00123
 016,0.00197773,-0.00396668,-0.00337496,-0.00149480,0.02670763,-0.01733
 157,-0.03560718,0.00144897,-0.00088633,-0.00006040,-0.00006821,0.00121
 202,0.00095854,0.00105392,-0.00192975,-0.00009387,0.00012486,0.0032501
 8,-0.00020906,0.00053076,-0.00141248,0.00002597,-0.00070003,-0.0011314
 9,0.00001869,-0.05188745,0.10873741,0.00092862,-0.00025119,0.00061850,
 -0.00175453,-0.00327012,-0.00072075,0.01456647,-0.01093530,-0.00940659
 ,0.00136584,0.00049040,0.00134398,-0.00025252,-0.00036633,0.00055294,-
 0.00007521,-0.00065750,-0.00015169,0.00007812,0.00134467,-0.00016663,0
 .00014852,-0.00059688,0.00007314,-0.00035597,-0.00055533,0.00007086,-0
 .13413787,0.08516333,0.29719797,-0.00637479,0.00489700,-0.00001015,0.0
 0854096,0.02570133,0.00001177,-0.09452054,0.00767784,-0.00001855,0.011
 42462,-0.02579828,0.00000332,-0.00498982,-0.00704778,-0.00001197,-0.00
 448505,-0.00074240,-0.00000354,-0.00030709,0.00101310,0.00000084,-0.00
 000440,-0.00015310,-0.00000004,-0.00040119,-0.00073338,-0.00000049,-0.
 12120117,0.04111182,0.07397591,0.56129669,-0.00052178,0.00104546,-0.00
 000245,0.01102673,-0.01154708,0.00000463,0.01070359,-0.21775219,-0.000
 03539,-0.00878106,-0.01805835,-0.00001302,-0.00134349,0.00164787,-0.00
 000269,0.00040674,0.00658876,0.00000259,0.00008417,-0.01089554,-0.0000
 0308,-0.00206756,0.00463713,-0.00000032,0.00209352,0.00370666,0.000002
 96,0.04374144,-0.12101236,-0.06966468,0.00480339,0.63065073,-0.0000119
 9,0.00000181,0.00724677,0.00000868,0.00001679,0.00310293,-0.00001728,-
 0.00003974,-0.07004232,0.00000709,-0.00002804,-0.00066010,-0.00000988,
 -0.00000793,0.00636758,-0.00000322,0.00000155,-0.00057314,0.00000057,-
 0.00000218,-0.00092166,-0.00000063,0.00000125,-0.00001764,0.00000037,0
 .00000050,-0.00008715,0.07611079,-0.06763495,-0.19010212,0.00004292,0.
 00004417,0.51357872,0.00174915,-0.00038464,0.00000160,-0.00444160,0.00
 288879,-0.00000244,-0.01537661,-0.01090773,-0.00002805,0.00229023,-0.0
 0367260,-0.00000096,-0.00097785,0.00057366,0.00000005,0.00039362,-0.00
 039374,0.00000012,-0.00014345,0.00124458,0.00000030,0.00051266,-0.0006
 3299,0.00000022,0.00000185,-0.00024435,-0.00000009,-0.06105497,-0.0102
 4837,0.03937341,-0.22306252,-0.10246124,-0.00018553,0.35770105,-0.0003
 9793,0.00054112,-0.00000010,-0.00085977,-0.00138662,-0.00000123,-0.046
 10643,-0.02175587,-0.00005607,0.00543589,-0.00768004,0.00000119,-0.002
 70391,-0.00097148,-0.00000201,-0.00039629,-0.00126237,-0.00000076,-0.0
 0026379,0.00255365,0.00000057,0.00065167,-0.00122067,0.00000018,-0.000
 37618,-0.00097728,-0.00000063,0.00124956,0.01798991,0.00523276,-0.0913
 7108,-0.15051392,-0.00011842,0.13377310,0.15077747,0.00000139,-0.00000
 038,0.00002074,-0.00000458,0.00000239,0.00006142,-0.00003924,-0.000020
 53,0.00920145,0.00000272,-0.00000706,0.00157551,-0.00000167,0.00000060
 ,-0.00055934,0.00000043,-0.00000076,0.00002306,-0.00000017,0.00000201,
 -0.00006679,0.00000067,-0.00000101,0.00003266,-0.00000014,-0.00000056,
 0.00002797,0.04971514,0.01266097,-0.00831008,-0.00018095,-0.00012917,-
 0.07330619,0.00032513,0.00015912,0.08041489,0.00021047,-0.00033981,0.0
 0092428,0.00052625,0.00095249,-0.00002534,-0.00007944,0.00950157,-0.01
 564799,-0.00219668,-0.00006581,0.00053375,0.00043738,0.00095317,0.0012
 1766,0.00050642,0.00082033,-0.00019168,-0.00005153,-0.00135748,-0.0002
 2894,-0.00012014,0.00049974,0.00005616,0.00037541,0.00053902,0.0000374
 9,0.01823214,-0.00482888,0.00684945,-0.12089524,0.04364637,-0.07594076
 ,-0.06087390,0.00129146,-0.04982220,0.16260552,0.00076815,-0.00122890,
 -0.00197791,-0.00396979,-0.00337603,0.00148593,0.02664291,-0.01736218,
 0.03565558,0.00145043,-0.00088603,0.00006140,-0.00006683,0.00121219,-0
 .00095893,0.00105362,-0.00193059,0.00009459,0.00012449,0.00325129,0.00
 021157,0.00053102,-0.00141296,-0.00002602,-0.00070026,-0.00113191,-0.0
 0002064,-0.00481297,0.01793507,-0.00568655,0.04102201,-0.12109769,0.06
 776291,-0.01019794,0.01800104,-0.01266479,-0.05179840,0.10884231,-0.00
 092839,0.00025004,0.00061803,0.00175440,0.00326934,-0.00071485,-0.0145
 3054,0.01095098,-0.00943791,-0.00137117,-0.00049100,0.00134235,0.00025
 237,0.00036826,0.00055556,0.00007664,0.00065816,-0.00015151,-0.0000778
 4,-0.00134542,-0.00016797,-0.00014865,0.00059707,0.00007337,0.00035614
 ,0.00055568,0.00007188,-0.00663264,0.00574486,-0.08952954,-0.07380831,
 0.06979516,-0.19031736,-0.03948711,-0.00521314,-0.00850384,0.13383019,
 -0.08538756,0.29763290,-0.28524308,0.11852018,-0.00017029,0.00495278,-
 0.00197848,-0.00000044,0.00156896,-0.00088516,-0.00000536,0.00030267,-
 0.00070731,0.00000104,-0.00261853,-0.00390186,-0.00000907,-0.01920026,
 0.01326372,-0.00001639,-0.00274308,0.00201679,0.00000190,0.00231662,0.
 00080350,0.00000246,0.00080411,0.00002171,0.00000058,-0.00001023,-0.00
 005512,-0.00004829,0.00028532,-0.00012754,0.00000023,-0.00002550,0.000
 02204,-0.00000005,-0.00001028,-0.00005490,0.00004811,0.30005566,0.1202
 3948,-0.12154706,0.00007697,0.02692145,-0.00843171,0.00001876,-0.00031
 512,-0.00552707,-0.00000440,-0.00085681,-0.00092041,-0.00000066,-0.003
 57102,-0.00187186,-0.00000575,-0.01424398,0.01304692,-0.00000955,-0.00
 235525,0.00058274,-0.00000045,0.00073678,-0.00204419,0.00000006,0.0014
 5909,0.00049595,0.00000135,0.00010372,-0.00045351,-0.00031121,0.001342
 49,0.00070875,0.00000136,-0.00023374,-0.00006397,-0.00000026,0.0001030
 5,-0.00045350,0.00031107,-0.12799159,0.12474982,-0.00016985,0.00007546
 ,-0.04144716,0.00000878,-0.00000590,0.00473734,-0.00000509,-0.00000503
 ,0.00751312,0.00000099,-0.00000060,-0.00117458,-0.00000899,-0.00000601
 ,0.00650850,-0.00002511,0.00001401,0.00494610,0.00000051,0.00000324,-0
 .00421768,0.00000241,0.00000012,-0.00024384,0.00000105,0.00000014,0.00
 011727,0.00003846,0.00011788,0.00005677,0.00000079,0.00000019,-0.00001
 387,-0.00000015,-0.00000005,0.00003635,-0.00003859,-0.00011825,0.00005
 691,0.00019156,-0.00007820,0.02783951,0.00690672,0.00300833,0.00000336
 ,-0.26232540,-0.13222953,-0.00023340,-0.01803815,-0.01589006,-0.000024
 37,-0.00330887,0.00368921,-0.00000737,0.00012853,0.00091611,0.00000126
 ,0.00142297,0.00131831,-0.00000495,0.00030296,0.00020021,0.00000017,-0
 .00003044,-0.00005859,-0.00000011,0.00001092,0.00010907,0.00000015,0.0
 0036120,0.00022388,-0.00018523,-0.00290751,-0.00259221,-0.00000087,0.0
 0259475,-0.00014180,0.00000253,0.00036159,0.00022243,0.00018666,0.0005
 1123,-0.00036680,0.00000400,0.27480104,-0.02649901,-0.01131670,-0.0000
 2762,-0.13377095,-0.14580272,-0.00014876,0.01111468,0.01209235,0.00001
 192,0.00344203,-0.00088927,0.00000048,0.00095255,-0.00092512,0.0000008
 3,0.00133217,-0.00516912,-0.00000305,-0.00162396,0.00044502,-0.0000013
 3,0.00035169,-0.00018289,0.00000023,-0.00005312,-0.00074062,-0.0000002
 3,-0.00046404,0.00002907,0.00028806,0.00155956,0.00122880,0.00000295,0
 .00067525,-0.00375648,-0.00000070,-0.00046300,0.00002859,-0.00028864,0
 .00036056,0.00116154,0.00000209,0.14251874,0.15328750,-0.00000604,-0.0
 0000236,0.00409036,-0.00023433,-0.00014760,-0.03969815,-0.00001556,-0.
 00001116,0.00440837,-0.00000732,0.00000067,0.00664139,0.00000123,0.000
 00081,-0.00097816,-0.00000494,-0.00000298,0.00767079,-0.00000041,0.000
 00025,0.00018857,0.00000003,-0.00000013,0.00006810,0.00000010,-0.00000
 010,-0.00012654,0.00053801,-0.00082069,-0.00040740,0.00000084,-0.00000
 075,-0.00314249,0.00000254,-0.00000150,-0.00033338,-0.00053701,0.00082
 160,-0.00040813,0.00000421,0.00000144,-0.00428564,0.00025851,0.0001628
 7,0.02703517,0.00032920,-0.00077370,0.00000094,-0.00252905,-0.00403067
 ,-0.00000914,-0.01816912,0.01339865,-0.00001461,-0.28508082,0.11580103
 ,-0.00017173,0.00390148,-0.00141675,-0.00000070,0.00163369,-0.00043691
 ,-0.00000531,0.00016314,-0.00033754,-0.00000019,-0.00002544,0.00001863
 ,0.00000019,0.00002901,0.00009967,0.00000004,0.00103216,-0.00026927,-0
 .00051543,-0.00277167,0.00154957,-0.00000036,0.00058507,-0.00007697,0.
 00000060,0.00103225,-0.00027094,0.00051863,-0.00001619,0.00008008,0.00
 000085,-0.00081914,0.00076953,-0.00000077,0.30014193,-0.00077289,-0.00
 099502,-0.00000063,-0.00345965,-0.00168655,-0.00000571,-0.01544377,0.0
 1232112,-0.00001059,0.11622865,-0.11991925,0.00007287,0.02883973,-0.00
 895035,0.00002034,-0.00083326,-0.00553547,-0.00000505,0.00154136,0.000
 77161,0.00000144,0.00029201,-0.00092218,0.00000006,-0.00027934,-0.0002
 0201,-0.00000030,0.00042332,-0.00049216,-0.00016922,-0.00187944,0.0007
 5121,-0.00000065,0.00047709,0.00029652,0.00000053,0.00042394,-0.000491
 67,0.00016982,0.00008897,0.00002742,0.00000041,-0.00088222,0.00056044,
 -0.00000068,-0.12437552,0.12330671,0.00000095,-0.00000067,-0.00106845,
 -0.00000909,-0.00000613,0.00671034,-0.00002390,0.00001393,0.00407849,-
 0.00017105,0.00007232,-0.03926046,0.00000890,-0.00000539,0.00423009,-0
 .00000541,-0.00000462,0.00774033,0.00000042,-0.00000012,0.00025035,0.0
 0000027,-0.00000020,-0.00023717,-0.00000008,0.00000002,0.00001530,0.00
 097094,-0.00063656,-0.00095623,-0.00000176,0.00000208,-0.00157358,0.00
 000075,-0.00000005,-0.00012549,-0.00096729,0.00063638,-0.00095669,0.00
 000086,0.00000040,-0.00099772,-0.00000130,0.00000072,0.00038030,0.0001
 9275,-0.00007412,0.02611478,-0.00340009,0.00383385,-0.00000726,0.00012
 748,0.00082595,0.00000124,0.00135201,0.00144217,-0.00000509,0.00695617
 ,0.00336225,0.00000290,-0.26311310,-0.13257289,-0.00023260,-0.01804724
 ,-0.01657771,-0.00002399,-0.00215821,-0.00215068,0.00000091,0.00094181
 ,0.00024965,0.00000037,0.00136502,-0.00043628,0.00000086,-0.00001123,-
 0.00004183,-0.00000943,0.00029472,0.00016415,-0.00000004,0.00009293,0.
 00017924,0.00000032,-0.00001120,-0.00004199,0.00000959,-0.00085331,-0.
 00095900,-0.00000136,0.00000446,-0.00009273,0.00000087,0.00056329,-0.0
 0040522,0.00000408,0.27530506,0.00360956,-0.00087666,0.00000068,0.0009
 6969,-0.00083279,0.00000090,0.00108588,-0.00538430,-0.00000329,-0.0259
 5831,-0.01126286,-0.00002735,-0.13451769,-0.14577849,-0.00014877,0.011
 52462,0.01206415,0.00001252,0.00104908,0.00178985,0.00000275,-0.000857
 61,0.00001040,-0.00000093,0.00045167,-0.00432503,-0.00000102,0.0002002
 4,-0.00009745,-0.00014061,-0.00147742,0.00057125,-0.00000122,-0.000335
 73,-0.00074730,-0.00000053,0.00020000,-0.00009765,0.00014102,0.0007473
 8,0.00063327,0.00000072,-0.00007903,-0.00000132,0.00000026,0.00028591,
 0.00114647,0.00000202,0.14307087,0.15319026,-0.00000729,0.00000091,0.0
 0655697,0.00000130,0.00000071,-0.00101565,-0.00000525,-0.00000314,0.00
 783444,-0.00000648,-0.00000228,0.00484329,-0.00023310,-0.00014713,-0.0
 4068957,-0.00001506,-0.00001144,0.00381413,0.00000192,0.,-0.00400521,0
 .,0.00000004,0.00060286,0.00000115,-0.00000180,0.00018474,0.00002945,-
 0.00009694,-0.00011878,-0.00000066,0.00000027,0.00037970,0.00000016,0.
 ,-0.00018666,-0.00002907,0.00009685,-0.00011868,-0.00000080,-0.0000007
 3,0.00037573,0.00000088,0.00000026,-0.00104325,0.00000427,0.00000146,-
 0.00436923,0.00025798,0.00016280,0.02707508,0.00058144,-0.00119744,-0.
 00000031,-0.00044188,-0.00021709,-0.00000012,-0.00013171,0.00023533,-0
 .00000004,0.00033706,0.00016232,0.00000026,-0.00046861,0.00071432,-0.0
 0000003,-0.00587837,-0.00165373,-0.00000939,0.01079955,-0.05294107,-0.
 00001057,-0.00025825,0.00758664,0.00000697,-0.06848297,0.12228157,-0.0
 0000739,-0.00004915,0.00009897,0.00004813,0.00007870,-0.00032480,-0.00
 000010,0.00003510,0.00009119,0.00000007,-0.00004901,0.00009898,-0.0000
 4809,-0.00007689,-0.00009283,-0.00000026,0.00002314,-0.00010994,0.0000
 0004,0.00000021,0.00001625,-0.00000002,0.00059144,0.00003089,0.0000006
 2,0.06339019,0.00035057,-0.00073232,-0.00000008,-0.00050365,0.00015928
 ,-0.00000027,0.00012076,0.00025511,0.00000020,0.00013380,0.00001153,0.
 00000009,-0.00023673,0.00092858,0.00000015,-0.00318809,0.00143925,-0.0
 0000359,-0.00658779,-0.03562912,-0.00001796,0.00903011,0.00352299,0.00
 001061,0.07563488,-0.48178062,-0.00007834,-0.00007794,0.00019856,0.000
 08569,0.00007432,-0.00065950,-0.00000016,0.00008061,0.00017629,0.00000
 013,-0.00007776,0.00019862,-0.00008571,-0.00014290,-0.00009313,-0.0000
 0021,0.00003395,-0.00004906,0.00000003,-0.00001478,0.00001315,-0.00000
 002,0.00015020,-0.00000179,0.00000016,-0.07477955,0.51204221,0.0000001
 8,-0.00000138,0.00048990,-0.00000017,-0.00000002,-0.00039810,-0.000000
 11,0.00000027,0.00002557,0.00000025,0.00000012,0.00008637,-0.00000032,
 0.00000093,-0.00016838,-0.00000987,-0.00000251,0.00458364,0.00000365,-
 0.00005682,0.00416210,0.00000752,0.00000927,-0.00575721,-0.00002180,-0
 .00003887,-0.01537755,0.00002006,-0.00001352,-0.00004434,0.00000002,-0
 .00000051,0.00008192,0.00000005,0.00000012,-0.00000226,-0.00002011,0.0
 0001385,-0.00004451,-0.00000027,-0.00000017,0.00019288,0.00000008,-0.0
 0000009,-0.00005989,-0.00000003,0.00000001,0.00002504,0.00000065,0.000
 00006,-0.00011990,0.00002023,0.00008926,0.01232470\\-0.00001557,-0.000
 06537,-0.00000020,0.00001889,0.00001357,0.00000025,-0.00001907,0.00003
 199,-0.00000006,-0.00002399,0.00003140,0.00000008,0.00000956,-0.000078
 43,-0.00000018,0.00004698,-0.00002999,-0.00000146,-0.00014636,0.000059
 74,0.00000492,0.00008233,-0.00002799,-0.00000188,0.00001942,0.00002419
 ,-0.00000148,0.00001875,0.00000458,-0.00004497,0.00001419,0.00002572,-
 0.00000008,-0.00003047,0.00001673,-0.00000007,0.00001864,0.00000454,0.
 00004518,0.00002019,0.00002477,0.00000003,0.00001055,-0.00001562,-0.00
 000004,-0.00000787,-0.00001008,-0.00000004,-0.00001735,0.00001762,0.00
 000002,0.00000118,-0.00002736,-0.00000003\\\@
 The archive entry for this job was punched.


       THE DEATH-KNELL OF THE ATOM

 SO THE ATOMS IN TURN, WE NOW CLEARLY DISCERN,
 FLY TO BITS WITH THE UTMOST FACILITY;
 THEY WEND ON THEIR WAY, AND, IN SPLITTING, DISPLAY
 AN ABSOLUTE LACK OF STABILITY.

          SIR WM. RAMSAY, 1905
 Job cpu time:       1 days  1 hours 17 minutes  9.2 seconds.
 Elapsed time:       0 days  0 hours 37 minutes 56.8 seconds.
 File lengths (MBytes):  RWF=    645 Int=      0 D2E=      0 Chk=     46 Scr=      1
 Normal termination of Gaussian 16 at Mon Sep  5 21:07:34 2022.
