 Entering Gaussian System, Link 0=g16
 Initial command:
 /usr/local/gaussian16c01/g16/l1.exe "/scr/dhuang/Gau-43688.inp" -scrdir="/scr/dhuang/"
 Entering Link 1 = /usr/local/gaussian16c01/g16/l1.exe PID=     43690.
  
 Copyright (c) 1988-2019, Gaussian, Inc.  All Rights Reserved.
  
 This is part of the Gaussian(R) 16 program.  It is based on
 the Gaussian(R) 09 system (copyright 2009, Gaussian, Inc.),
 the Gaussian(R) 03 system (copyright 2003, Gaussian, Inc.),
 the Gaussian(R) 98 system (copyright 1998, Gaussian, Inc.),
 the Gaussian(R) 94 system (copyright 1995, Gaussian, Inc.),
 the Gaussian 92(TM) system (copyright 1992, Gaussian, Inc.),
 the Gaussian 90(TM) system (copyright 1990, Gaussian, Inc.),
 the Gaussian 88(TM) system (copyright 1988, Gaussian, Inc.),
 the Gaussian 86(TM) system (copyright 1986, Carnegie Mellon
 University), and the Gaussian 82(TM) system (copyright 1983,
 Carnegie Mellon University). Gaussian is a federally registered
 trademark of Gaussian, Inc.
  
 This software contains proprietary and confidential information,
 including trade secrets, belonging to Gaussian, Inc.
  
 This software is provided under written license and may be
 used, copied, transmitted, or stored only in accord with that
 written license.
  
 The following legend is applicable only to US Government
 contracts under FAR:
  
                    RESTRICTED RIGHTS LEGEND
  
 Use, reproduction and disclosure by the US Government is
 subject to restrictions as set forth in subparagraphs (a)
 and (c) of the Commercial Computer Software - Restricted
 Rights clause in FAR 52.227-19.
  
 Gaussian, Inc.
 340 Quinnipiac St., Bldg. 40, Wallingford CT 06492
  
  
 ---------------------------------------------------------------
 Warning -- This program may not be used in any manner that
 competes with the business of Gaussian, Inc. or will provide
 assistance to any competitor of Gaussian, Inc.  The licensee
 of this program is prohibited from giving any competitor of
 Gaussian, Inc. access to this program.  By using this program,
 the user acknowledges that Gaussian, Inc. is engaged in the
 business of creating and licensing software in the field of
 computational chemistry and represents and warrants to the
 licensee that it is not a competitor of Gaussian, Inc. and that
 it will not use this program in any manner prohibited above.
 ---------------------------------------------------------------
  

 Cite this work as:
 Gaussian 16, Revision C.01,
 M. J. Frisch, G. W. Trucks, H. B. Schlegel, G. E. Scuseria, 
 M. A. Robb, J. R. Cheeseman, G. Scalmani, V. Barone, 
 G. A. Petersson, H. Nakatsuji, X. Li, M. Caricato, A. V. Marenich, 
 J. Bloino, B. G. Janesko, R. Gomperts, B. Mennucci, H. P. Hratchian, 
 J. V. Ortiz, A. F. Izmaylov, J. L. Sonnenberg, D. Williams-Young, 
 F. Ding, F. Lipparini, F. Egidi, J. Goings, B. Peng, A. Petrone, 
 T. Henderson, D. Ranasinghe, V. G. Zakrzewski, J. Gao, N. Rega, 
 G. Zheng, W. Liang, M. Hada, M. Ehara, K. Toyota, R. Fukuda, 
 J. Hasegawa, M. Ishida, T. Nakajima, Y. Honda, O. Kitao, H. Nakai, 
 T. Vreven, K. Throssell, J. A. Montgomery, Jr., J. E. Peralta, 
 F. Ogliaro, M. J. Bearpark, J. J. Heyd, E. N. Brothers, K. N. Kudin, 
 V. N. Staroverov, T. A. Keith, R. Kobayashi, J. Normand, 
 K. Raghavachari, A. P. Rendell, J. C. Burant, S. S. Iyengar, 
 J. Tomasi, M. Cossi, J. M. Millam, M. Klene, C. Adamo, R. Cammi, 
 J. W. Ochterski, R. L. Martin, K. Morokuma, O. Farkas, 
 J. B. Foresman, and D. J. Fox, Gaussian, Inc., Wallingford CT, 2019.
 
 ******************************************
 Gaussian 16:  ES64L-G16RevC.01  3-Jul-2019
                 5-Sep-2022 
 ******************************************
 %nprocshared=40
 Will use up to   40 processors via shared memory.
 %mem=10000MW
 %chk=4-CN.chk
 ------------------------------------
 # opt freq M062x/aug-cc-pvtz pop=nbo
 ------------------------------------
 1/18=20,19=15,26=3,38=1/1,3;
 2/9=110,12=2,17=6,18=5,40=1/2;
 3/5=16,6=1,7=10,11=2,25=1,30=1,71=1,74=-55/1,2,3;
 4//1;
 5/5=2,38=5/2;
 6/7=2,8=2,9=2,10=2,28=1,40=1/1,7;
 7//1,2,3,16;
 1/18=20,19=15,26=3/3(2);
 2/9=110/2;
 99//99;
 2/9=110/2;
 3/5=16,6=1,7=10,11=2,25=1,30=1,71=1,74=-55/1,2,3;
 4/5=5,16=3,69=1/1;
 5/5=2,38=5/2;
 7//1,2,3,16;
 1/18=20,19=15,26=3/3(-5);
 2/9=110/2;
 6/7=2,8=2,9=2,10=2,19=2,28=1,40=1/1,7;
 99/9=1/99;
 -----------------
 4-CN_benzoic-acid
 -----------------
 Symbolic Z-matrix:
 Charge =  0 Multiplicity = 1
 C                    -1.1903    0.2893   -0.0009 
 C                    -1.105    -1.051    -0.0011 
 C                     0.0934   -1.656    -0.0002 
 C                     1.2051   -0.9035    0.0009 
 C                     1.1182    0.4366    0.0012 
 C                    -0.0797    1.0515    0.0003 
 C                    -0.1483    2.4149    0.0006 
 O                    -1.1989    3.021    -0.0001 
 O                     0.9601    3.1966    0.0018 
 C                     0.1777   -2.9695   -0.0005 
 N                     0.2549   -4.1252   -0.0006 
 H                    -2.2004    0.7318   -0.0017 
 H                    -2.0311   -1.6518   -0.0021 
 H                     2.2004   -1.3808    0.0016 
 H                     2.0613    1.0086    0.0021 
 H                     0.6774    4.1252    0.0018 
 

 GradGradGradGradGradGradGradGradGradGradGradGradGradGradGradGradGradGrad
 Berny optimization.
 Initialization pass.
                           ----------------------------
                           !    Initial Parameters    !
                           ! (Angstroms and Degrees)  !
 --------------------------                            --------------------------
 ! Name  Definition              Value          Derivative Info.                !
 --------------------------------------------------------------------------------
 ! R1    R(1,2)                  1.343          estimate D2E/DX2                !
 ! R2    R(1,6)                  1.347          estimate D2E/DX2                !
 ! R3    R(1,12)                 1.1028         estimate D2E/DX2                !
 ! R4    R(2,3)                  1.3425         estimate D2E/DX2                !
 ! R5    R(2,13)                 1.1039         estimate D2E/DX2                !
 ! R6    R(3,4)                  1.3424         estimate D2E/DX2                !
 ! R7    R(3,10)                 1.3162         estimate D2E/DX2                !
 ! R8    R(4,5)                  1.3429         estimate D2E/DX2                !
 ! R9    R(4,14)                 1.1038         estimate D2E/DX2                !
 ! R10   R(5,6)                  1.3465         estimate D2E/DX2                !
 ! R11   R(5,15)                 1.103          estimate D2E/DX2                !
 ! R12   R(6,7)                  1.3651         estimate D2E/DX2                !
 ! R13   R(7,8)                  1.2129         estimate D2E/DX2                !
 ! R14   R(7,9)                  1.3563         estimate D2E/DX2                !
 ! R15   R(9,16)                 0.9707         estimate D2E/DX2                !
 ! R16   R(10,11)                1.1583         estimate D2E/DX2                !
 ! A1    A(2,1,6)              120.8201         estimate D2E/DX2                !
 ! A2    A(2,1,12)             117.2986         estimate D2E/DX2                !
 ! A3    A(6,1,12)             121.8813         estimate D2E/DX2                !
 ! A4    A(1,2,3)              120.428          estimate D2E/DX2                !
 ! A5    A(1,2,13)             119.3316         estimate D2E/DX2                !
 ! A6    A(3,2,13)             120.2404         estimate D2E/DX2                !
 ! A7    A(2,3,4)              119.1198         estimate D2E/DX2                !
 ! A8    A(2,3,10)             120.4586         estimate D2E/DX2                !
 ! A9    A(4,3,10)             120.4215         estimate D2E/DX2                !
 ! A10   A(3,4,5)              120.3835         estimate D2E/DX2                !
 ! A11   A(3,4,14)             120.2861         estimate D2E/DX2                !
 ! A12   A(5,4,14)             119.3304         estimate D2E/DX2                !
 ! A13   A(4,5,6)              120.8823         estimate D2E/DX2                !
 ! A14   A(4,5,15)             117.527          estimate D2E/DX2                !
 ! A15   A(6,5,15)             121.5907         estimate D2E/DX2                !
 ! A16   A(1,6,5)              118.3663         estimate D2E/DX2                !
 ! A17   A(1,6,7)              121.5812         estimate D2E/DX2                !
 ! A18   A(5,6,7)              120.0525         estimate D2E/DX2                !
 ! A19   A(6,7,8)              122.8614         estimate D2E/DX2                !
 ! A20   A(6,7,9)              122.313          estimate D2E/DX2                !
 ! A21   A(8,7,9)              114.8256         estimate D2E/DX2                !
 ! A22   A(7,9,16)             108.2612         estimate D2E/DX2                !
 ! A23   L(3,10,11,14,-1)      179.8505         estimate D2E/DX2                !
 ! A24   L(3,10,11,14,-2)      179.9903         estimate D2E/DX2                !
 ! D1    D(6,1,2,3)             -0.0048         estimate D2E/DX2                !
 ! D2    D(6,1,2,13)          -179.9996         estimate D2E/DX2                !
 ! D3    D(12,1,2,3)           179.9984         estimate D2E/DX2                !
 ! D4    D(12,1,2,13)            0.0036         estimate D2E/DX2                !
 ! D5    D(2,1,6,5)              0.0046         estimate D2E/DX2                !
 ! D6    D(2,1,6,7)           -179.9961         estimate D2E/DX2                !
 ! D7    D(12,1,6,5)          -179.9988         estimate D2E/DX2                !
 ! D8    D(12,1,6,7)             0.0006         estimate D2E/DX2                !
 ! D9    D(1,2,3,4)             -0.0001         estimate D2E/DX2                !
 ! D10   D(1,2,3,10)          -179.9947         estimate D2E/DX2                !
 ! D11   D(13,2,3,4)           179.9947         estimate D2E/DX2                !
 ! D12   D(13,2,3,10)            0.0001         estimate D2E/DX2                !
 ! D13   D(2,3,4,5)              0.0051         estimate D2E/DX2                !
 ! D14   D(2,3,4,14)          -179.9968         estimate D2E/DX2                !
 ! D15   D(10,3,4,5)           179.9997         estimate D2E/DX2                !
 ! D16   D(10,3,4,14)           -0.0022         estimate D2E/DX2                !
 ! D17   D(3,4,5,6)             -0.0054         estimate D2E/DX2                !
 ! D18   D(3,4,5,15)          -179.9991         estimate D2E/DX2                !
 ! D19   D(14,4,5,6)           179.9966         estimate D2E/DX2                !
 ! D20   D(14,4,5,15)            0.0028         estimate D2E/DX2                !
 ! D21   D(4,5,6,1)              0.0005         estimate D2E/DX2                !
 ! D22   D(4,5,6,7)           -179.9989         estimate D2E/DX2                !
 ! D23   D(15,5,6,1)           179.994          estimate D2E/DX2                !
 ! D24   D(15,5,6,7)            -0.0054         estimate D2E/DX2                !
 ! D25   D(1,6,7,8)              0.0047         estimate D2E/DX2                !
 ! D26   D(1,6,7,9)           -179.9998         estimate D2E/DX2                !
 ! D27   D(5,6,7,8)           -179.996          estimate D2E/DX2                !
 ! D28   D(5,6,7,9)             -0.0005         estimate D2E/DX2                !
 ! D29   D(6,7,9,16)          -179.9996         estimate D2E/DX2                !
 ! D30   D(8,7,9,16)            -0.0037         estimate D2E/DX2                !
 --------------------------------------------------------------------------------
 Trust Radius=3.00D-01 FncErr=1.00D-07 GrdErr=1.00D-06 EigMax=2.50D+02 EigMin=1.00D-04
 Number of steps in this run=     80 maximum allowed number of steps=    100.
 GradGradGradGradGradGradGradGradGradGradGradGradGradGradGradGradGradGrad

                          Input orientation:                          
 ---------------------------------------------------------------------
 Center     Atomic      Atomic             Coordinates (Angstroms)
 Number     Number       Type             X           Y           Z
 ---------------------------------------------------------------------
      1          6           0       -1.190300    0.289300   -0.000900
      2          6           0       -1.105000   -1.051000   -0.001100
      3          6           0        0.093400   -1.656000   -0.000200
      4          6           0        1.205100   -0.903500    0.000900
      5          6           0        1.118200    0.436600    0.001200
      6          6           0       -0.079700    1.051500    0.000300
      7          6           0       -0.148300    2.414900    0.000600
      8          8           0       -1.198900    3.021000   -0.000100
      9          8           0        0.960100    3.196600    0.001800
     10          6           0        0.177700   -2.969500   -0.000500
     11          7           0        0.254900   -4.125200   -0.000600
     12          1           0       -2.200400    0.731800   -0.001700
     13          1           0       -2.031100   -1.651800   -0.002100
     14          1           0        2.200400   -1.380800    0.001600
     15          1           0        2.061300    1.008600    0.002100
     16          1           0        0.677400    4.125200    0.001800
 ---------------------------------------------------------------------
                    Distance matrix (angstroms):
                    1          2          3          4          5
     1  C    0.000000
     2  C    1.343012   0.000000
     3  C    2.330682   1.342456   0.000000
     4  C    2.675951   2.314805   1.342436   0.000000
     5  C    2.313196   2.674991   2.330063   1.342915   0.000000
     6  C    1.346990   2.339177   2.713028   2.339388   1.346502
     7  C    2.367265   3.595517   4.078069   3.583779   2.348977
     8  O    2.731714   4.073083   4.852254   4.602273   3.471034
     9  O    3.616161   4.723002   4.929391   4.107414   2.764525
    10  C    3.534289   2.307805   1.316202   2.307360   3.533562
    11  N    4.645042   3.361552   2.474476   3.358904   4.642770
    12  H    1.102773   2.092433   3.311059   3.777783   3.331705
    13  H    2.115376   1.103913   2.124505   3.321589   3.778825
    14  H    3.779694   3.321813   2.124897   1.103829   2.115207
    15  H    3.330211   3.777224   3.312511   2.095043   1.103006
    16  H    4.266432   5.474487   5.810622   5.056312   3.714845
                    6          7          8          9         10
     6  C    0.000000
     7  C    1.365125   0.000000
     8  O    2.265290   1.212897   0.000000
     9  O    2.383829   1.356321   2.166130   0.000000
    10  C    4.029230   5.394260   6.146635   6.215541   0.000000
    11  N    5.187502   6.552517   7.292579   7.355683   1.158276
    12  H    2.144663   2.654043   2.498688   4.007993   4.399430
    13  H    3.334036   4.481405   4.746327   5.696865   2.571990
    14  H    3.333908   4.463601   5.561572   4.742461   2.572020
    15  H    2.141431   2.619163   3.831274   2.449487   4.401504
    16  H    3.165570   1.899186   2.177100   0.970679   7.112276
                   11         12         13         14         15
    11  N    0.000000
    12  H    5.442329   0.000000
    13  H    3.368012   2.389605   0.000000
    14  H    3.364031   4.881611   4.240171   0.000000
    15  H    5.442333   4.270681   4.881135   2.393446   0.000000
    16  H    8.261211   4.449372   6.380417   5.712755   3.410040
                   16
    16  H    0.000000
 Stoichiometry    C8H5NO2
 Framework group  C1[X(C8H5NO2)]
 Deg. of freedom    42
 Full point group                 C1      NOp   1
 Largest Abelian subgroup         C1      NOp   1
 Largest concise Abelian subgroup C1      NOp   1
                         Standard orientation:                         
 ---------------------------------------------------------------------
 Center     Atomic      Atomic             Coordinates (Angstroms)
 Number     Number       Type             X           Y           Z
 ---------------------------------------------------------------------
      1          6           0       -0.213152    1.196114    0.000066
      2          6           0        1.129464    1.163538    0.000002
      3          6           0        1.781080   -0.010168   -0.000010
      4          6           0        1.072837   -1.150574    0.000046
      5          6           0       -0.269642   -1.116392    0.000009
      6          6           0       -0.931131    0.056426    0.000023
      7          6           0       -2.296173    0.071407    0.000008
      8          8           0       -2.943081    1.097384   -0.000052
      9          8           0       -3.033723   -1.066849   -0.000032
     10          6           0        3.096878   -0.042798    0.000032
     11          7           0        4.254719   -0.074533   -0.000092
     12          1           0       -0.694996    2.188050    0.000101
     13          1           0        1.693416    2.112528    0.000046
     14          1           0        1.588872   -2.126354    0.000090
     15          1           0       -0.804148   -2.081237    0.000072
     16          1           0       -3.972712   -0.820851   -0.000044
 ---------------------------------------------------------------------
 Rotational constants (GHZ):           4.1827342           0.6170125           0.5376949
 Standard basis: Aug-CC-pVTZ (5D, 7F)
 There are   730 symmetry adapted cartesian basis functions of A   symmetry.
 There are   621 symmetry adapted basis functions of A   symmetry.
   621 basis functions,   927 primitive gaussians,   730 cartesian basis functions
    38 alpha electrons       38 beta electrons
       nuclear repulsion energy       538.7569471442 Hartrees.
 NAtoms=   16 NActive=   16 NUniq=   16 SFac= 1.00D+00 NAtFMM=   60 NAOKFM=F Big=F
 Integral buffers will be    131072 words long.
 Raffenetti 2 integral format.
 Two-electron integral symmetry is turned on.
 One-electron integrals computed using PRISM.
 NBasis=   621 RedAO= T EigKep=  1.56D-06  NBF=   621
 NBsUse=   617 1.00D-06 EigRej=  8.88D-07 NBFU=   617
 ExpMin= 2.53D-02 ExpMax= 1.53D+04 ExpMxC= 5.22D+02 IAcc=3 IRadAn=         5 AccDes= 0.00D+00
 Harris functional with IExCor= 1009 and IRadAn=       5 diagonalized for initial guess.
 HarFok:  IExCor= 1009 AccDes= 0.00D+00 IRadAn=         5 IDoV= 1 UseB2=F ITyADJ=14
 ICtDFT=  3500011 ScaDFX=  1.000000  1.000000  1.000000  1.000000
 FoFCou: FMM=F IPFlag=           0 FMFlag=      100000 FMFlg1=           0
         NFxFlg=           0 DoJE=T BraDBF=F KetDBF=T FulRan=T
         wScrn=  0.000000 ICntrl=       500 IOpCl=  0 I1Cent=   200000004 NGrid=           0
         NMat0=    1 NMatS0=      1 NMatT0=    0 NMatD0=    1 NMtDS0=    0 NMtDT0=    0
 Petite list used in FoFCou.
 Requested convergence on RMS density matrix=1.00D-08 within 128 cycles.
 Requested convergence on MAX density matrix=1.00D-06.
 Requested convergence on             energy=1.00D-06.
 No special actions if energy rises.
 SCF Done:  E(RM062X) =  -513.021058432     A.U. after   14 cycles
            NFock= 14  Conv=0.70D-08     -V/T= 2.0027

 **********************************************************************

            Population analysis using the SCF Density.

 **********************************************************************

 Orbital symmetries:
       Occupied  (A) (A) (A) (A) (A) (A) (A) (A) (A) (A) (A) (A)
                 (A) (A) (A) (A) (A) (A) (A) (A) (A) (A) (A) (A)
                 (A) (A) (A) (A) (A) (A) (A) (A) (A) (A) (A) (A)
                 (A) (A)
       Virtual   (A) (A) (A) (A) (A) (A) (A) (A) (A) (A) (A) (A)
                 (A) (A) (A) (A) (A) (A) (A) (A) (A) (A) (A) (A)
                 (A) (A) (A) (A) (A) (A) (A) (A) (A) (A) (A) (A)
                 (A) (A) (A) (A) (A) (A) (A) (A) (A) (A) (A) (A)
                 (A) (A) (A) (A) (A) (A) (A) (A) (A) (A) (A) (A)
                 (A) (A) (A) (A) (A) (A) (A) (A) (A) (A) (A) (A)
                 (A) (A) (A) (A) (A) (A) (A) (A) (A) (A) (A) (A)
                 (A) (A) (A) (A) (A) (A) (A) (A) (A) (A) (A) (A)
                 (A) (A) (A) (A) (A) (A) (A) (A) (A) (A) (A) (A)
                 (A) (A) (A) (A) (A) (A) (A) (A) (A) (A) (A) (A)
                 (A) (A) (A) (A) (A) (A) (A) (A) (A) (A) (A) (A)
                 (A) (A) (A) (A) (A) (A) (A) (A) (A) (A) (A) (A)
                 (A) (A) (A) (A) (A) (A) (A) (A) (A) (A) (A) (A)
                 (A) (A) (A) (A) (A) (A) (A) (A) (A) (A) (A) (A)
                 (A) (A) (A) (A) (A) (A) (A) (A) (A) (A) (A) (A)
                 (A) (A) (A) (A) (A) (A) (A) (A) (A) (A) (A) (A)
                 (A) (A) (A) (A) (A) (A) (A) (A) (A) (A) (A) (A)
                 (A) (A) (A) (A) (A) (A) (A) (A) (A) (A) (A) (A)
                 (A) (A) (A) (A) (A) (A) (A) (A) (A) (A) (A) (A)
                 (A) (A) (A) (A) (A) (A) (A) (A) (A) (A) (A) (A)
                 (A) (A) (A) (A) (A) (A) (A) (A) (A) (A) (A) (A)
                 (A) (A) (A) (A) (A) (A) (A) (A) (A) (A) (A) (A)
                 (A) (A) (A) (A) (A) (A) (A) (A) (A) (A) (A) (A)
                 (A) (A) (A) (A) (A) (A) (A) (A) (A) (A) (A) (A)
                 (A) (A) (A) (A) (A) (A) (A) (A) (A) (A) (A) (A)
                 (A) (A) (A) (A) (A) (A) (A) (A) (A) (A) (A) (A)
                 (A) (A) (A) (A) (A) (A) (A) (A) (A) (A) (A) (A)
                 (A) (A) (A) (A) (A) (A) (A) (A) (A) (A) (A) (A)
                 (A) (A) (A) (A) (A) (A) (A) (A) (A) (A) (A) (A)
                 (A) (A) (A) (A) (A) (A) (A) (A) (A) (A) (A) (A)
                 (A) (A) (A) (A) (A) (A) (A) (A) (A) (A) (A) (A)
                 (A) (A) (A) (A) (A) (A) (A) (A) (A) (A) (A) (A)
                 (A) (A) (A) (A) (A) (A) (A) (A) (A) (A) (A) (A)
                 (A) (A) (A) (A) (A) (A) (A) (A) (A) (A) (A) (A)
                 (A) (A) (A) (A) (A) (A) (A) (A) (A) (A) (A) (A)
                 (A) (A) (A) (A) (A) (A) (A) (A) (A) (A) (A) (A)
                 (A) (A) (A) (A) (A) (A) (A) (A) (A) (A) (A) (A)
                 (A) (A) (A) (A) (A) (A) (A) (A) (A) (A) (A) (A)
                 (A) (A) (A) (A) (A) (A) (A) (A) (A) (A) (A) (A)
                 (A) (A) (A) (A) (A) (A) (A) (A) (A) (A) (A) (A)
                 (A) (A) (A) (A) (A) (A) (A) (A) (A) (A) (A) (A)
                 (A) (A) (A) (A) (A) (A) (A) (A) (A) (A) (A) (A)
                 (A) (A) (A) (A) (A) (A) (A) (A) (A) (A) (A) (A)
                 (A) (A) (A) (A) (A) (A) (A) (A) (A) (A) (A) (A)
                 (A) (A) (A) (A) (A) (A) (A) (A) (A) (A) (A) (A)
                 (A) (A) (A) (A) (A) (A) (A) (A) (A) (A) (A) (A)
                 (A) (A) (A) (A) (A) (A) (A) (A) (A) (A) (A) (A)
                 (A) (A) (A) (A) (A) (A) (A) (A) (A) (A) (A) (A)
                 (A) (A) (A)
 The electronic state is 1-A.
 Alpha  occ. eigenvalues --  -19.68272 -19.62477 -14.76980 -10.68912 -10.59288
 Alpha  occ. eigenvalues --  -10.58546 -10.58031 -10.58011 -10.57969 -10.57839
 Alpha  occ. eigenvalues --  -10.57779  -1.25530  -1.14634  -1.05963  -1.02553
 Alpha  occ. eigenvalues --   -0.94952  -0.90326  -0.83187  -0.75170  -0.71766
 Alpha  occ. eigenvalues --   -0.68016  -0.64374  -0.60089  -0.57925  -0.56696
 Alpha  occ. eigenvalues --   -0.54425  -0.52971  -0.52111  -0.51064  -0.48254
 Alpha  occ. eigenvalues --   -0.45615  -0.44908  -0.44753  -0.41172  -0.40990
 Alpha  occ. eigenvalues --   -0.37349  -0.36096  -0.34739
 Alpha virt. eigenvalues --   -0.07341  -0.01372  -0.01163  -0.00090   0.00212
 Alpha virt. eigenvalues --    0.02079   0.02171   0.02570   0.02958   0.03392
 Alpha virt. eigenvalues --    0.05202   0.05389   0.05548   0.05657   0.06069
 Alpha virt. eigenvalues --    0.06605   0.07284   0.07700   0.07730   0.08293
 Alpha virt. eigenvalues --    0.08776   0.08971   0.09374   0.09622   0.09681
 Alpha virt. eigenvalues --    0.10408   0.10643   0.11087   0.11720   0.13414
 Alpha virt. eigenvalues --    0.13641   0.14032   0.14254   0.14314   0.14795
 Alpha virt. eigenvalues --    0.15422   0.15683   0.16755   0.17386   0.18082
 Alpha virt. eigenvalues --    0.18815   0.19302   0.19308   0.19726   0.20122
 Alpha virt. eigenvalues --    0.21111   0.21356   0.21481   0.21610   0.22225
 Alpha virt. eigenvalues --    0.22811   0.22908   0.23457   0.23862   0.24338
 Alpha virt. eigenvalues --    0.24818   0.25934   0.26693   0.27075   0.27172
 Alpha virt. eigenvalues --    0.28216   0.29063   0.29143   0.29777   0.29979
 Alpha virt. eigenvalues --    0.30659   0.31365   0.32201   0.32311   0.32521
 Alpha virt. eigenvalues --    0.33324   0.33711   0.33836   0.34354   0.35496
 Alpha virt. eigenvalues --    0.35587   0.35644   0.35812   0.36509   0.37201
 Alpha virt. eigenvalues --    0.37683   0.38135   0.38810   0.38997   0.39644
 Alpha virt. eigenvalues --    0.39719   0.39940   0.40340   0.40720   0.41243
 Alpha virt. eigenvalues --    0.41643   0.42809   0.43759   0.44682   0.45396
 Alpha virt. eigenvalues --    0.46196   0.46663   0.47322   0.47446   0.48404
 Alpha virt. eigenvalues --    0.48685   0.48987   0.50495   0.51587   0.51904
 Alpha virt. eigenvalues --    0.51991   0.52828   0.54154   0.54652   0.55891
 Alpha virt. eigenvalues --    0.56127   0.56921   0.57309   0.57995   0.58088
 Alpha virt. eigenvalues --    0.59273   0.59638   0.60004   0.61506   0.62077
 Alpha virt. eigenvalues --    0.62371   0.63674   0.64133   0.64248   0.65197
 Alpha virt. eigenvalues --    0.65964   0.66413   0.67948   0.68093   0.68917
 Alpha virt. eigenvalues --    0.70111   0.71282   0.71282   0.71801   0.72342
 Alpha virt. eigenvalues --    0.72477   0.73017   0.73295   0.73805   0.74762
 Alpha virt. eigenvalues --    0.74987   0.75449   0.75542   0.76528   0.76707
 Alpha virt. eigenvalues --    0.77851   0.78204   0.79347   0.79386   0.79990
 Alpha virt. eigenvalues --    0.80452   0.81095   0.81250   0.82572   0.83260
 Alpha virt. eigenvalues --    0.83582   0.84477   0.84795   0.85644   0.86961
 Alpha virt. eigenvalues --    0.87212   0.87324   0.87632   0.88037   0.88908
 Alpha virt. eigenvalues --    0.90204   0.90364   0.90558   0.91116   0.91511
 Alpha virt. eigenvalues --    0.92715   0.93585   0.93666   0.93879   0.94245
 Alpha virt. eigenvalues --    0.95149   0.96593   0.97093   0.97173   0.98157
 Alpha virt. eigenvalues --    0.98688   0.99284   0.99486   1.00592   1.01764
 Alpha virt. eigenvalues --    1.02373   1.04150   1.04428   1.04527   1.05646
 Alpha virt. eigenvalues --    1.06458   1.06779   1.06801   1.07262   1.07849
 Alpha virt. eigenvalues --    1.08764   1.09477   1.10105   1.10724   1.11785
 Alpha virt. eigenvalues --    1.12334   1.12723   1.12799   1.14154   1.14925
 Alpha virt. eigenvalues --    1.17947   1.18899   1.18962   1.19379   1.20124
 Alpha virt. eigenvalues --    1.20857   1.21796   1.22053   1.23575   1.23844
 Alpha virt. eigenvalues --    1.25402   1.26640   1.26688   1.28445   1.29786
 Alpha virt. eigenvalues --    1.31276   1.31756   1.32188   1.33360   1.34171
 Alpha virt. eigenvalues --    1.34479   1.35249   1.37960   1.38258   1.39996
 Alpha virt. eigenvalues --    1.40997   1.41159   1.41617   1.42161   1.44653
 Alpha virt. eigenvalues --    1.45510   1.47102   1.47384   1.47842   1.48206
 Alpha virt. eigenvalues --    1.49574   1.50462   1.51271   1.52172   1.52632
 Alpha virt. eigenvalues --    1.52781   1.53328   1.54022   1.55227   1.58085
 Alpha virt. eigenvalues --    1.59446   1.60905   1.60980   1.61607   1.63217
 Alpha virt. eigenvalues --    1.64448   1.64785   1.64984   1.66189   1.66287
 Alpha virt. eigenvalues --    1.67784   1.68127   1.68860   1.70448   1.70636
 Alpha virt. eigenvalues --    1.71808   1.72892   1.74202   1.75394   1.75564
 Alpha virt. eigenvalues --    1.77314   1.77430   1.78520   1.80982   1.81019
 Alpha virt. eigenvalues --    1.82242   1.82642   1.83438   1.84684   1.86803
 Alpha virt. eigenvalues --    1.87709   1.88604   1.89032   1.89167   1.90152
 Alpha virt. eigenvalues --    1.91628   1.92230   1.93683   1.93716   1.95670
 Alpha virt. eigenvalues --    1.96848   1.98667   1.99673   2.00384   2.00574
 Alpha virt. eigenvalues --    2.01411   2.02366   2.05545   2.07975   2.09280
 Alpha virt. eigenvalues --    2.10540   2.12604   2.12717   2.13050   2.14983
 Alpha virt. eigenvalues --    2.15689   2.16372   2.16414   2.17801   2.17874
 Alpha virt. eigenvalues --    2.19561   2.20579   2.21584   2.22542   2.23215
 Alpha virt. eigenvalues --    2.26236   2.28307   2.29323   2.30538   2.31257
 Alpha virt. eigenvalues --    2.34464   2.36936   2.37746   2.39269   2.40386
 Alpha virt. eigenvalues --    2.40609   2.42716   2.43439   2.44040   2.48726
 Alpha virt. eigenvalues --    2.48882   2.49692   2.50369   2.50372   2.55166
 Alpha virt. eigenvalues --    2.55193   2.57291   2.59657   2.59914   2.61965
 Alpha virt. eigenvalues --    2.66761   2.67544   2.69551   2.74975   2.74991
 Alpha virt. eigenvalues --    2.75740   2.77341   2.79236   2.81117   2.84684
 Alpha virt. eigenvalues --    2.86090   2.89622   2.91008   2.92310   2.93589
 Alpha virt. eigenvalues --    2.95289   2.96216   2.96793   2.98627   2.98848
 Alpha virt. eigenvalues --    2.99289   3.00119   3.01427   3.06200   3.07233
 Alpha virt. eigenvalues --    3.08078   3.10082   3.10862   3.11331   3.12980
 Alpha virt. eigenvalues --    3.14055   3.14840   3.15257   3.18496   3.19294
 Alpha virt. eigenvalues --    3.19497   3.20723   3.21120   3.21390   3.22511
 Alpha virt. eigenvalues --    3.24474   3.25501   3.27079   3.27568   3.27938
 Alpha virt. eigenvalues --    3.33160   3.33960   3.35779   3.37558   3.37682
 Alpha virt. eigenvalues --    3.39071   3.39232   3.40023   3.40642   3.42756
 Alpha virt. eigenvalues --    3.44252   3.46484   3.46767   3.46998   3.47679
 Alpha virt. eigenvalues --    3.50145   3.52416   3.53814   3.54324   3.55808
 Alpha virt. eigenvalues --    3.56547   3.57381   3.58992   3.59250   3.60094
 Alpha virt. eigenvalues --    3.60793   3.61613   3.62560   3.64488   3.65543
 Alpha virt. eigenvalues --    3.65748   3.67814   3.70024   3.71114   3.72658
 Alpha virt. eigenvalues --    3.74591   3.75821   3.76113   3.76802   3.77553
 Alpha virt. eigenvalues --    3.80307   3.83122   3.83993   3.84813   3.86328
 Alpha virt. eigenvalues --    3.87967   3.89102   3.89442   3.91761   3.93495
 Alpha virt. eigenvalues --    3.94190   3.95246   3.95547   3.95643   3.98183
 Alpha virt. eigenvalues --    3.98600   3.99376   3.99989   4.00366   4.02781
 Alpha virt. eigenvalues --    4.05373   4.07212   4.07836   4.08447   4.08900
 Alpha virt. eigenvalues --    4.12855   4.13459   4.13838   4.16023   4.17263
 Alpha virt. eigenvalues --    4.18472   4.20493   4.21302   4.22457   4.25059
 Alpha virt. eigenvalues --    4.26364   4.30507   4.31243   4.35291   4.36868
 Alpha virt. eigenvalues --    4.39711   4.40548   4.41823   4.41996   4.43258
 Alpha virt. eigenvalues --    4.47589   4.49009   4.50870   4.54801   4.56814
 Alpha virt. eigenvalues --    4.58146   4.60191   4.60551   4.63302   4.63472
 Alpha virt. eigenvalues --    4.64630   4.65613   4.66024   4.66539   4.68012
 Alpha virt. eigenvalues --    4.68872   4.73704   4.74295   4.74344   4.75542
 Alpha virt. eigenvalues --    4.76410   4.77215   4.82057   4.82518   4.86985
 Alpha virt. eigenvalues --    4.89327   4.90937   4.92303   4.92800   4.96197
 Alpha virt. eigenvalues --    5.00195   5.00230   5.02817   5.02845   5.03297
 Alpha virt. eigenvalues --    5.05349   5.06045   5.09887   5.12051   5.15139
 Alpha virt. eigenvalues --    5.17616   5.20428   5.23426   5.23699   5.27382
 Alpha virt. eigenvalues --    5.32906   5.34117   5.39233   5.42675   5.44732
 Alpha virt. eigenvalues --    5.44824   5.48067   5.52779   5.57123   5.74005
 Alpha virt. eigenvalues --    5.74253   5.80542   5.86781   5.88361   5.91795
 Alpha virt. eigenvalues --    5.96055   6.00064   6.07848   6.14887   6.20096
 Alpha virt. eigenvalues --    6.22524   6.24733   6.27739   6.30902   6.35908
 Alpha virt. eigenvalues --    6.37912   6.39960   6.42029   6.48646   6.52252
 Alpha virt. eigenvalues --    6.53755   6.56001   6.60140   6.70140   6.74077
 Alpha virt. eigenvalues --    6.78395   6.81198   6.81410   6.82460   6.86223
 Alpha virt. eigenvalues --    6.87357   6.90560   7.01908   7.07204   7.08754
 Alpha virt. eigenvalues --    7.12917   7.17611   7.32424   7.39491   7.50830
 Alpha virt. eigenvalues --    7.69575   7.88460   8.03156  15.38989  15.68735
 Alpha virt. eigenvalues --   17.08605  17.56098  17.88496  18.33275  19.63029
 Alpha virt. eigenvalues --   20.21708  20.27121  20.33337  21.44543
          Condensed to atoms (all electrons):
               1          2          3          4          5          6
     1  C    7.678338   0.017069  -0.036196  -0.329793   0.070099  -0.387206
     2  C    0.017069   7.695237  -0.106884   0.010349  -0.321980  -0.066227
     3  C   -0.036196  -0.106884   5.638108  -0.202175  -0.024741  -0.312359
     4  C   -0.329793   0.010349  -0.202175   8.070180  -0.212065  -0.103758
     5  C    0.070099  -0.321980  -0.024741  -0.212065   7.667364  -0.206647
     6  C   -0.387206  -0.066227  -0.312359  -0.103758  -0.206647   6.525848
     7  C   -0.563329   0.046979  -0.032002   0.151166  -0.768924  -0.497697
     8  O    0.043156  -0.008507  -0.011185  -0.015993   0.053639  -0.259648
     9  O    0.038043  -0.003377  -0.009088   0.003902  -0.016768  -0.048881
    10  C    0.208766  -0.909200  -0.255032  -0.862260   0.200354  -0.228704
    11  N    0.004417   0.079309   0.061142   0.065548   0.011088   0.016941
    12  H    0.233809  -0.303168  -0.009288   0.092099  -0.069763  -0.170430
    13  H   -0.388584   0.500612  -0.144633  -0.046817   0.019870   0.019976
    14  H    0.021092  -0.030286  -0.183272   0.558229  -0.394863   0.003506
    15  H   -0.015236   0.058194   0.031847  -0.399431   0.293858  -0.151020
    16  H   -0.023996   0.000175   0.001389  -0.000116  -0.008221   0.033377
               7          8          9         10         11         12
     1  C   -0.563329   0.043156   0.038043   0.208766   0.004417   0.233809
     2  C    0.046979  -0.008507  -0.003377  -0.909200   0.079309  -0.303168
     3  C   -0.032002  -0.011185  -0.009088  -0.255032   0.061142  -0.009288
     4  C    0.151166  -0.015993   0.003902  -0.862260   0.065548   0.092099
     5  C   -0.768924   0.053639  -0.016768   0.200354   0.011088  -0.069763
     6  C   -0.497697  -0.259648  -0.048881  -0.228704   0.016941  -0.170430
     7  C    7.380094   0.011092   0.002372  -0.015737   0.000335   0.171801
     8  O    0.011092   9.313718  -0.096204   0.002004  -0.000157  -0.004858
     9  O    0.002372  -0.096204   8.606521   0.002863  -0.000195   0.004629
    10  C   -0.015737   0.002004   0.002863   7.709883  -0.453828  -0.017953
    11  N    0.000335  -0.000157  -0.000195  -0.453828   8.293942   0.000981
    12  H    0.171801  -0.004858   0.004629  -0.017953   0.000981   0.883613
    13  H   -0.015433  -0.003493  -0.000171   0.112370  -0.037496  -0.044087
    14  H   -0.007947  -0.000195  -0.001637   0.125241  -0.041662   0.002432
    15  H    0.085662   0.011239  -0.035980  -0.031873   0.001988  -0.006987
    16  H    0.067205  -0.107341   0.144568  -0.000410   0.000005  -0.001256
              13         14         15         16
     1  C   -0.388584   0.021092  -0.015236  -0.023996
     2  C    0.500612  -0.030286   0.058194   0.000175
     3  C   -0.144633  -0.183272   0.031847   0.001389
     4  C   -0.046817   0.558229  -0.399431  -0.000116
     5  C    0.019870  -0.394863   0.293858  -0.008221
     6  C    0.019976   0.003506  -0.151020   0.033377
     7  C   -0.015433  -0.007947   0.085662   0.067205
     8  O   -0.003493  -0.000195   0.011239  -0.107341
     9  O   -0.000171  -0.001637  -0.035980   0.144568
    10  C    0.112370   0.125241  -0.031873  -0.000410
    11  N   -0.037496  -0.041662   0.001988   0.000005
    12  H   -0.044087   0.002432  -0.006987  -0.001256
    13  H    0.891215   0.012677   0.000775  -0.000027
    14  H    0.012677   0.895150  -0.037900   0.000169
    15  H    0.000775  -0.037900   0.942694  -0.002159
    16  H   -0.000027   0.000169  -0.002159   0.596745
 Mulliken charges:
               1
     1  C   -0.570450
     2  C   -0.658295
     3  C    1.594367
     4  C   -0.779064
     5  C   -0.292300
     6  C    1.832928
     7  C   -0.015637
     8  O   -0.927267
     9  O   -0.590597
    10  C    0.413516
    11  N   -1.002361
    12  H    0.238426
    13  H    0.123246
    14  H    0.079265
    15  H    0.254329
    16  H    0.299894
 Sum of Mulliken charges =   0.00000
 Mulliken charges with hydrogens summed into heavy atoms:
               1
     1  C   -0.332024
     2  C   -0.535049
     3  C    1.594367
     4  C   -0.699799
     5  C   -0.037971
     6  C    1.832928
     7  C   -0.015637
     8  O   -0.927267
     9  O   -0.290703
    10  C    0.413516
    11  N   -1.002361
 Electronic spatial extent (au):  <R**2>=           1901.7438
 Charge=              0.0000 electrons
 Dipole moment (field-independent basis, Debye):
    X=             -2.5316    Y=             -1.1383    Z=              0.0004  Tot=              2.7758
 Quadrupole moment (field-independent basis, Debye-Ang):
   XX=            -81.2311   YY=            -58.3506   ZZ=            -62.9737
   XY=              6.1907   XZ=              0.0005   YZ=              0.0001
 Traceless Quadrupole moment (field-independent basis, Debye-Ang):
   XX=            -13.7126   YY=              9.1679   ZZ=              4.5448
   XY=              6.1907   XZ=              0.0005   YZ=              0.0001
 Octapole moment (field-independent basis, Debye-Ang**2):
  XXX=           -163.1051  YYY=             -0.4994  ZZZ=             -0.0005  XYY=              7.6281
  XXY=            -21.0598  XXZ=              0.0036  XZZ=             -9.8597  YZZ=              0.0734
  YYZ=              0.0011  XYZ=             -0.0006
 Hexadecapole moment (field-independent basis, Debye-Ang**3):
 XXXX=          -2412.4353 YYYY=           -348.4457 ZZZZ=            -64.3981 XXXY=            113.7119
 XXXZ=              0.0152 YYYX=              7.3959 YYYZ=             -0.0001 ZZZX=              0.0009
 ZZZY=             -0.0001 XXYY=           -423.4267 XXZZ=           -352.8734 YYZZ=            -79.8791
 XXYZ=              0.0013 YYXZ=              0.0003 ZZXY=              0.3627
 N-N= 5.387569471442D+02 E-N=-2.274746331312D+03  KE= 5.116516977788D+02
 ******************************Gaussian NBO Version 3.1******************************
             N A T U R A L   A T O M I C   O R B I T A L   A N D
          N A T U R A L   B O N D   O R B I T A L   A N A L Y S I S
 ******************************Gaussian NBO Version 3.1******************************
       /RESON  / : Allow strongly delocalized NBO set

 Analyzing the SCF density

 Job title: 4-CN_benzoic-acid                                               

 Storage needed:   1159527 in NPA,   1544729 in NBO (********** available)
 GSVD:  LWork=       46161 too small for GESVD, short by      629109 words or      629109 for optimal perf.
 Remove ICRem=  463 ICRemI=   54 L=0 PNAO number  463 atom   11 type  51 NPNAO=  621
   due to symmetric orthogonalization 2, value= 0.00D+00.
 GSVD:  LWork=       47807 too small for GESVD, short by      624180 words or      624180 for optimal perf.
 Remove ICRem=    8 ICRemI=   54 L=1 PNAO number   16 atom    1 type 153 NPNAO=  620
   due to symmetric orthogonalization 2, value= 0.00D+00.
 Remove ICRem=    8 ICRemI=   54 L=1 PNAO number   12 atom    1 type 152 NPNAO=  619
   due to symmetric orthogonalization 2, value= 0.00D+00.
 Remove ICRem=    8 ICRemI=   54 L=1 PNAO number    8 atom    1 type 151 NPNAO=  618
   due to symmetric orthogonalization 2, value= 0.00D+00.
 GSVD:  LWork=       52721 too small for GESVD, short by      609465 words or      609465 for optimal perf.

 Computed number of electrons   75.99994210 does not match expected value of    76.


 NATURAL POPULATIONS:  Natural atomic orbital occupancies 
                                                          
   NAO  Atom  No  lang   Type(AO)    Occupancy      Energy
 ----------------------------------------------------------
     1    C    1  S      Cor( 1S)     1.99909     -10.40965
     2    C    1  S      Val( 2S)     0.94376      -0.20727
     3    C    1  S      Ryd( 3S)     0.00114       1.97019
     4    C    1  S      Ryd( 4S)     0.00014       2.15437
     5    C    1  S      Ryd( 5S)     0.00004       2.47566
     6    C    1  px     Val( 2p)     1.06562      -0.09352
     7    C    1  px     Ryd( 3p)     0.00274       1.87131
     8    C    1  px     Ryd( 4p)     0.00010       2.22416
     9    C    1  py     Val( 2p)     1.13957      -0.09621
    10    C    1  py     Ryd( 3p)     0.00390       1.60959
    11    C    1  py     Ryd( 4p)     0.00006       1.97875
    12    C    1  pz     Val( 2p)     0.92106      -0.14470
    13    C    1  pz     Ryd( 3p)     0.00059       1.03016
    14    C    1  pz     Ryd( 4p)     0.00006       1.34706
    15    C    1  dxy    Ryd( 4d)     0.00179       2.87941
    16    C    1  dxy    Ryd( 5d)     0.00022       4.17475
    17    C    1  dxy    Ryd( 3d)     0.00006       2.80112
    18    C    1  dxz    Ryd( 3d)     0.00055       1.32137
    19    C    1  dxz    Ryd( 5d)     0.00004       3.27091
    20    C    1  dxz    Ryd( 4d)     0.00005       1.68622
    21    C    1  dyz    Ryd( 3d)     0.00100       1.19290
    22    C    1  dyz    Ryd( 5d)     0.00006       3.28752
    23    C    1  dyz    Ryd( 4d)     0.00002       1.41775
    24    C    1  dx2y2  Ryd( 4d)     0.00206       3.54170
    25    C    1  dx2y2  Ryd( 5d)     0.00027       4.34360
    26    C    1  dx2y2  Ryd( 3d)     0.00005       2.52113
    27    C    1  dz2    Ryd( 3d)     0.00114       1.74063
    28    C    1  dz2    Ryd( 4d)     0.00010       3.98981
    29    C    1  dz2    Ryd( 5d)     0.00010       4.59732
    30    C    1  f(0)   Ryd( 4f)     0.00034       1.53973
    31    C    1  f(0)   Ryd( 5f)     0.00005       3.29123
    32    C    1  f(C1)  Ryd( 4f)     0.00085       2.01170
    33    C    1  f(C1)  Ryd( 5f)     0.00015       3.58759
    34    C    1  f(S1)  Ryd( 4f)     0.00095       1.87104
    35    C    1  f(S1)  Ryd( 5f)     0.00009       3.41951
    36    C    1  f(C2)  Ryd( 4f)     0.00014       1.57991
    37    C    1  f(C2)  Ryd( 5f)     0.00002       3.28324
    38    C    1  f(S2)  Ryd( 4f)     0.00016       1.54863
    39    C    1  f(S2)  Ryd( 5f)     0.00002       3.34049
    40    C    1  f(C3)  Ryd( 4f)     0.00043       2.94839
    41    C    1  f(C3)  Ryd( 5f)     0.00017       3.97110
    42    C    1  f(S3)  Ryd( 4f)     0.00125       1.82996
    43    C    1  f(S3)  Ryd( 5f)     0.00021       4.10279
 
    44    C    2  S      Cor( 1S)     1.99909     -10.41148
    45    C    2  S      Val( 2S)     0.94017      -0.20410
    46    C    2  S      Ryd( 3S)     0.00183       1.61169
    47    C    2  S      Ryd( 5S)     0.00012       2.77477
    48    C    2  S      Ryd( 4S)     0.00004       1.97009
    49    C    2  px     Val( 2p)     1.09129      -0.10033
    50    C    2  px     Ryd( 4p)     0.00330       1.68801
    51    C    2  px     Ryd( 3p)     0.00019       1.02916
    52    C    2  px     Ryd( 5p)     0.00015       2.24820
    53    C    2  py     Val( 2p)     1.12361      -0.09716
    54    C    2  py     Ryd( 3p)     0.00592       1.44211
    55    C    2  py     Ryd( 4p)     0.00023       1.63099
    56    C    2  py     Ryd( 5p)     0.00006       2.03511
    57    C    2  pz     Val( 2p)     0.97266      -0.15200
    58    C    2  pz     Ryd( 3p)     0.00083       0.84563
    59    C    2  pz     Ryd( 4p)     0.00062       1.41366
    60    C    2  pz     Ryd( 5p)     0.00005       1.45666
    61    C    2  dxy    Ryd( 3d)     0.00149       2.92771
    62    C    2  dxy    Ryd( 5d)     0.00011       3.78095
    63    C    2  dxy    Ryd( 4d)     0.00006       3.67551
    64    C    2  dxz    Ryd( 3d)     0.00009       1.52027
    65    C    2  dxz    Ryd( 5d)     0.00011       2.85431
    66    C    2  dxz    Ryd( 4d)     0.00003       2.04362
    67    C    2  dyz    Ryd( 3d)     0.00024       1.37762
    68    C    2  dyz    Ryd( 5d)     0.00005       2.92523
    69    C    2  dyz    Ryd( 4d)     0.00003       1.94338
    70    C    2  dx2y2  Ryd( 4d)     0.00136       3.38528
    71    C    2  dx2y2  Ryd( 5d)     0.00039       3.72739
    72    C    2  dx2y2  Ryd( 3d)     0.00007       2.93435
    73    C    2  dz2    Ryd( 3d)     0.00096       1.70404
    74    C    2  dz2    Ryd( 5d)     0.00023       4.00194
    75    C    2  dz2    Ryd( 4d)     0.00006       3.68741
    76    C    2  f(0)   Ryd( 5f)     0.00011       3.38055
    77    C    2  f(0)   Ryd( 4f)     0.00001       2.24023
    78    C    2  f(C1)  Ryd( 5f)     0.00018       3.70759
    79    C    2  f(C1)  Ryd( 4f)     0.00002       3.32953
    80    C    2  f(S1)  Ryd( 5f)     0.00021       3.61960
    81    C    2  f(S1)  Ryd( 4f)     0.00003       3.01805
    82    C    2  f(C2)  Ryd( 5f)     0.00000       3.48672
    83    C    2  f(C2)  Ryd( 4f)     0.00003       2.48822
    84    C    2  f(S2)  Ryd( 5f)     0.00001       3.55712
    85    C    2  f(S2)  Ryd( 4f)     0.00002       2.35547
    86    C    2  f(C3)  Ryd( 4f)     0.00013       4.16571
    87    C    2  f(C3)  Ryd( 5f)     0.00004       6.21057
    88    C    2  f(S3)  Ryd( 5f)     0.00013       4.33173
    89    C    2  f(S3)  Ryd( 4f)     0.00005       4.05961
 
    90    C    3  S      Cor( 1S)     1.99873     -10.40315
    91    C    3  S      Val( 2S)     0.87131      -0.12237
    92    C    3  S      Ryd( 3S)     0.00106       1.93523
    93    C    3  S      Ryd( 5S)     0.00011       3.40614
    94    C    3  S      Ryd( 4S)     0.00003       3.02233
    95    C    3  px     Val( 2p)     1.11939      -0.12385
    96    C    3  px     Ryd( 4p)     0.00708       2.35045
    97    C    3  px     Ryd( 3p)     0.00003       1.45945
    98    C    3  px     Ryd( 5p)     0.00005       2.47897
    99    C    3  py     Val( 2p)     1.15637      -0.14561
   100    C    3  py     Ryd( 5p)     0.00177       1.98283
   101    C    3  py     Ryd( 3p)     0.00011       1.20417
   102    C    3  py     Ryd( 4p)     0.00005       1.63434
   103    C    3  pz     Val( 2p)     1.03579      -0.16175
   104    C    3  pz     Ryd( 3p)     0.00163       0.95862
   105    C    3  pz     Ryd( 4p)     0.00003       1.07175
   106    C    3  pz     Ryd( 5p)     0.00006       1.36001
   107    C    3  dxy    Ryd( 4d)     0.00067       3.33538
   108    C    3  dxy    Ryd( 3d)     0.00018       3.27435
   109    C    3  dxy    Ryd( 5d)     0.00006       5.19492
   110    C    3  dxz    Ryd( 3d)     0.00012       2.23089
   111    C    3  dxz    Ryd( 5d)     0.00008       2.75869
   112    C    3  dxz    Ryd( 4d)     0.00006       2.46477
   113    C    3  dyz    Ryd( 3d)     0.00061       1.71671
   114    C    3  dyz    Ryd( 4d)     0.00002       2.42359
   115    C    3  dyz    Ryd( 5d)     0.00005       2.50047
   116    C    3  dx2y2  Ryd( 3d)     0.00153       3.82006
   117    C    3  dx2y2  Ryd( 4d)     0.00010       4.14062
   118    C    3  dx2y2  Ryd( 5d)     0.00004       6.06177
   119    C    3  dz2    Ryd( 3d)     0.00071       2.54710
   120    C    3  dz2    Ryd( 4d)     0.00008       4.02342
   121    C    3  dz2    Ryd( 5d)     0.00005       4.91136
   122    C    3  f(0)   Ryd( 4f)     0.00046       1.81048
   123    C    3  f(0)   Ryd( 5f)     0.00017       3.26827
   124    C    3  f(C1)  Ryd( 4f)     0.00052       2.00214
   125    C    3  f(C1)  Ryd( 5f)     0.00028       3.37240
   126    C    3  f(S1)  Ryd( 4f)     0.00101       1.95849
   127    C    3  f(S1)  Ryd( 5f)     0.00016       3.36573
   128    C    3  f(C2)  Ryd( 4f)     0.00052       1.74336
   129    C    3  f(C2)  Ryd( 5f)     0.00007       3.28421
   130    C    3  f(S2)  Ryd( 4f)     0.00007       1.52818
   131    C    3  f(S2)  Ryd( 5f)     0.00002       3.11427
   132    C    3  f(C3)  Ryd( 4f)     0.00084       2.04549
   133    C    3  f(C3)  Ryd( 5f)     0.00011       4.14992
   134    C    3  f(S3)  Ryd( 4f)     0.00171       2.61324
   135    C    3  f(S3)  Ryd( 5f)     0.00032       3.95074
 
   136    C    4  S      Cor( 1S)     1.99907     -10.41165
   137    C    4  S      Val( 2S)     0.93806      -0.20385
   138    C    4  S      Ryd( 4S)     0.00123       1.83533
   139    C    4  S      Ryd( 5S)     0.00011       2.82646
   140    C    4  S      Ryd( 3S)     0.00002       1.74999
   141    C    4  px     Val( 2p)     1.08161      -0.09759
   142    C    4  px     Ryd( 4p)     0.00310       1.79618
   143    C    4  px     Ryd( 5p)     0.00015       2.05357
   144    C    4  px     Ryd( 3p)     0.00002       1.05309
   145    C    4  py     Val( 2p)     1.13019      -0.09931
   146    C    4  py     Ryd( 4p)     0.00429       1.73846
   147    C    4  py     Ryd( 5p)     0.00007       2.26698
   148    C    4  py     Ryd( 3p)     0.00005       1.11642
   149    C    4  pz     Val( 2p)     0.96902      -0.15074
   150    C    4  pz     Ryd( 4p)     0.00080       1.02092
   151    C    4  pz     Ryd( 5p)     0.00004       1.61160
   152    C    4  pz     Ryd( 3p)     0.00005       0.61038
   153    C    4  dxy    Ryd( 3d)     0.00194       2.89404
   154    C    4  dxy    Ryd( 5d)     0.00018       3.65819
   155    C    4  dxy    Ryd( 4d)     0.00006       3.58078
   156    C    4  dxz    Ryd( 3d)     0.00034       1.51511
   157    C    4  dxz    Ryd( 5d)     0.00003       2.86023
   158    C    4  dxz    Ryd( 4d)     0.00002       2.12272
   159    C    4  dyz    Ryd( 3d)     0.00023       1.35833
   160    C    4  dyz    Ryd( 5d)     0.00005       2.92648
   161    C    4  dyz    Ryd( 4d)     0.00003       1.92458
   162    C    4  dx2y2  Ryd( 4d)     0.00161       3.21902
   163    C    4  dx2y2  Ryd( 5d)     0.00030       3.67192
   164    C    4  dx2y2  Ryd( 3d)     0.00008       3.01228
   165    C    4  dz2    Ryd( 3d)     0.00100       1.67547
   166    C    4  dz2    Ryd( 5d)     0.00016       3.87447
   167    C    4  dz2    Ryd( 4d)     0.00006       3.74995
   168    C    4  f(0)   Ryd( 5f)     0.00013       3.45593
   169    C    4  f(0)   Ryd( 4f)     0.00003       2.24068
   170    C    4  f(C1)  Ryd( 5f)     0.00022       3.77414
   171    C    4  f(C1)  Ryd( 4f)     0.00001       3.25995
   172    C    4  f(S1)  Ryd( 5f)     0.00020       3.67619
   173    C    4  f(S1)  Ryd( 4f)     0.00001       2.96434
   174    C    4  f(C2)  Ryd( 5f)     0.00001       3.57001
   175    C    4  f(C2)  Ryd( 4f)     0.00002       2.41841
   176    C    4  f(S2)  Ryd( 5f)     0.00001       3.61335
   177    C    4  f(S2)  Ryd( 4f)     0.00002       2.31276
   178    C    4  f(C3)  Ryd( 4f)     0.00013       4.21928
   179    C    4  f(C3)  Ryd( 5f)     0.00004       6.11190
   180    C    4  f(S3)  Ryd( 5f)     0.00015       4.48022
   181    C    4  f(S3)  Ryd( 4f)     0.00007       4.00979
 
   182    C    5  S      Cor( 1S)     1.99911     -10.41004
   183    C    5  S      Val( 2S)     0.94207      -0.20831
   184    C    5  S      Ryd( 3S)     0.00123       1.94536
   185    C    5  S      Ryd( 5S)     0.00011       2.54198
   186    C    5  S      Ryd( 4S)     0.00003       2.31345
   187    C    5  px     Val( 2p)     1.08925      -0.09730
   188    C    5  px     Ryd( 4p)     0.00357       1.92454
   189    C    5  px     Ryd( 5p)     0.00015       2.17281
   190    C    5  px     Ryd( 3p)     0.00006       1.52786
   191    C    5  py     Val( 2p)     1.14170      -0.09727
   192    C    5  py     Ryd( 4p)     0.00463       1.79945
   193    C    5  py     Ryd( 5p)     0.00007       2.06689
   194    C    5  py     Ryd( 3p)     0.00004       1.41771
   195    C    5  pz     Val( 2p)     0.94380      -0.14704
   196    C    5  pz     Ryd( 4p)     0.00067       0.99727
   197    C    5  pz     Ryd( 5p)     0.00004       1.45690
   198    C    5  pz     Ryd( 3p)     0.00005       0.82823
   199    C    5  dxy    Ryd( 3d)     0.00199       2.69117
   200    C    5  dxy    Ryd( 5d)     0.00015       3.89010
   201    C    5  dxy    Ryd( 4d)     0.00010       3.21488
   202    C    5  dxz    Ryd( 3d)     0.00047       1.38018
   203    C    5  dxz    Ryd( 5d)     0.00006       3.06859
   204    C    5  dxz    Ryd( 4d)     0.00005       1.90629
   205    C    5  dyz    Ryd( 3d)     0.00059       1.27547
   206    C    5  dyz    Ryd( 5d)     0.00005       3.12498
   207    C    5  dyz    Ryd( 4d)     0.00003       1.60371
   208    C    5  dx2y2  Ryd( 4d)     0.00196       3.52554
   209    C    5  dx2y2  Ryd( 5d)     0.00020       4.02886
   210    C    5  dx2y2  Ryd( 3d)     0.00006       2.74702
   211    C    5  dz2    Ryd( 3d)     0.00102       1.93917
   212    C    5  dz2    Ryd( 4d)     0.00011       4.01342
   213    C    5  dz2    Ryd( 5d)     0.00007       4.43847
   214    C    5  f(0)   Ryd( 4f)     0.00013       1.50342
   215    C    5  f(0)   Ryd( 5f)     0.00008       3.33268
   216    C    5  f(C1)  Ryd( 4f)     0.00051       2.04114
   217    C    5  f(C1)  Ryd( 5f)     0.00022       3.58531
   218    C    5  f(S1)  Ryd( 4f)     0.00053       1.83853
   219    C    5  f(S1)  Ryd( 5f)     0.00012       3.44934
   220    C    5  f(C2)  Ryd( 4f)     0.00018       1.56732
   221    C    5  f(C2)  Ryd( 5f)     0.00003       3.35241
   222    C    5  f(S2)  Ryd( 4f)     0.00012       1.52959
   223    C    5  f(S2)  Ryd( 5f)     0.00003       3.39024
   224    C    5  f(C3)  Ryd( 4f)     0.00039       2.89433
   225    C    5  f(C3)  Ryd( 5f)     0.00012       3.98447
   226    C    5  f(S3)  Ryd( 4f)     0.00109       2.02583
   227    C    5  f(S3)  Ryd( 5f)     0.00025       4.22777
 
   228    C    6  S      Cor( 1S)     1.99887     -10.39736
   229    C    6  S      Val( 2S)     0.89204      -0.14329
   230    C    6  S      Ryd( 3S)     0.00150       2.01246
   231    C    6  S      Ryd( 4S)     0.00011       2.30420
   232    C    6  S      Ryd( 5S)     0.00003       4.29569
   233    C    6  px     Val( 2p)     1.10325      -0.13112
   234    C    6  px     Ryd( 4p)     0.00666       2.33130
   235    C    6  px     Ryd( 3p)     0.00016       1.05771
   236    C    6  px     Ryd( 5p)     0.00004       2.49845
   237    C    6  py     Val( 2p)     1.14039      -0.13145
   238    C    6  py     Ryd( 4p)     0.00560       2.04970
   239    C    6  py     Ryd( 3p)     0.00016       1.06179
   240    C    6  py     Ryd( 5p)     0.00006       2.40704
   241    C    6  pz     Val( 2p)     1.04758      -0.15912
   242    C    6  pz     Ryd( 3p)     0.00125       0.88105
   243    C    6  pz     Ryd( 4p)     0.00040       0.96618
   244    C    6  pz     Ryd( 5p)     0.00008       1.86646
   245    C    6  dxy    Ryd( 3d)     0.00056       3.10983
   246    C    6  dxy    Ryd( 4d)     0.00030       3.54380
   247    C    6  dxy    Ryd( 5d)     0.00008       6.01154
   248    C    6  dxz    Ryd( 3d)     0.00035       1.42647
   249    C    6  dxz    Ryd( 5d)     0.00022       2.92490
   250    C    6  dxz    Ryd( 4d)     0.00004       2.37649
   251    C    6  dyz    Ryd( 3d)     0.00031       1.34890
   252    C    6  dyz    Ryd( 5d)     0.00021       2.82986
   253    C    6  dyz    Ryd( 4d)     0.00001       2.57399
   254    C    6  dx2y2  Ryd( 3d)     0.00203       3.28880
   255    C    6  dx2y2  Ryd( 4d)     0.00027       3.82727
   256    C    6  dx2y2  Ryd( 5d)     0.00002       4.63321
   257    C    6  dz2    Ryd( 3d)     0.00084       1.70573
   258    C    6  dz2    Ryd( 5d)     0.00018       4.18834
   259    C    6  dz2    Ryd( 4d)     0.00005       4.00692
   260    C    6  f(0)   Ryd( 4f)     0.00036       1.55116
   261    C    6  f(0)   Ryd( 5f)     0.00022       3.42230
   262    C    6  f(C1)  Ryd( 4f)     0.00051       2.02522
   263    C    6  f(C1)  Ryd( 5f)     0.00048       3.57301
   264    C    6  f(S1)  Ryd( 4f)     0.00099       1.94930
   265    C    6  f(S1)  Ryd( 5f)     0.00026       3.56812
   266    C    6  f(C2)  Ryd( 4f)     0.00061       1.55121
   267    C    6  f(C2)  Ryd( 5f)     0.00002       3.33514
   268    C    6  f(S2)  Ryd( 4f)     0.00076       1.45655
   269    C    6  f(S2)  Ryd( 5f)     0.00004       3.44152
   270    C    6  f(C3)  Ryd( 4f)     0.00118       3.04191
   271    C    6  f(C3)  Ryd( 5f)     0.00011       4.56556
   272    C    6  f(S3)  Ryd( 4f)     0.00226       2.42993
   273    C    6  f(S3)  Ryd( 5f)     0.00026       4.18102
 
   274    C    7  S      Cor( 1S)     1.99908     -10.55149
   275    C    7  S      Val( 2S)     0.77953      -0.11604
   276    C    7  S      Ryd( 3S)     0.00370       2.01605
   277    C    7  S      Ryd( 4S)     0.00015       2.15078
   278    C    7  S      Ryd( 5S)     0.00007       2.50971
   279    C    7  px     Val( 2p)     0.91776      -0.06440
   280    C    7  px     Ryd( 5p)     0.00577       1.60350
   281    C    7  px     Ryd( 3p)     0.00023       1.13942
   282    C    7  px     Ryd( 4p)     0.00002       1.30434
   283    C    7  py     Val( 2p)     0.72833      -0.04010
   284    C    7  py     Ryd( 4p)     0.01305       1.58920
   285    C    7  py     Ryd( 3p)     0.00014       1.26241
   286    C    7  py     Ryd( 5p)     0.00006       2.01404
   287    C    7  pz     Val( 2p)     0.75803      -0.14073
   288    C    7  pz     Ryd( 5p)     0.00057       1.11567
   289    C    7  pz     Ryd( 3p)     0.00012       0.71945
   290    C    7  pz     Ryd( 4p)     0.00007       1.04813
   291    C    7  dxy    Ryd( 3d)     0.00056       3.11156
   292    C    7  dxy    Ryd( 4d)     0.00040       3.16948
   293    C    7  dxy    Ryd( 5d)     0.00004       3.40118
   294    C    7  dxz    Ryd( 4d)     0.00128       2.22789
   295    C    7  dxz    Ryd( 3d)     0.00006       2.20485
   296    C    7  dxz    Ryd( 5d)     0.00005       2.30879
   297    C    7  dyz    Ryd( 3d)     0.00194       2.24361
   298    C    7  dyz    Ryd( 4d)     0.00001       2.24386
   299    C    7  dyz    Ryd( 5d)     0.00004       2.46626
   300    C    7  dx2y2  Ryd( 4d)     0.00225       3.05343
   301    C    7  dx2y2  Ryd( 3d)     0.00017       2.62254
   302    C    7  dx2y2  Ryd( 5d)     0.00006       3.63874
   303    C    7  dz2    Ryd( 3d)     0.00041       3.02488
   304    C    7  dz2    Ryd( 4d)     0.00052       3.27627
   305    C    7  dz2    Ryd( 5d)     0.00012       3.55689
   306    C    7  f(0)   Ryd( 5f)     0.00011       3.51649
   307    C    7  f(0)   Ryd( 4f)     0.00002       2.43544
   308    C    7  f(C1)  Ryd( 5f)     0.00016       3.75419
   309    C    7  f(C1)  Ryd( 4f)     0.00002       3.23185
   310    C    7  f(S1)  Ryd( 5f)     0.00007       3.64063
   311    C    7  f(S1)  Ryd( 4f)     0.00004       3.31910
   312    C    7  f(C2)  Ryd( 5f)     0.00000       3.42118
   313    C    7  f(C2)  Ryd( 4f)     0.00005       2.57218
   314    C    7  f(S2)  Ryd( 5f)     0.00003       3.62982
   315    C    7  f(S2)  Ryd( 4f)     0.00001       2.88250
   316    C    7  f(C3)  Ryd( 4f)     0.00008       4.57470
   317    C    7  f(C3)  Ryd( 5f)     0.00003       8.47923
   318    C    7  f(S3)  Ryd( 5f)     0.00008       4.60230
   319    C    7  f(S3)  Ryd( 4f)     0.00003       3.94543
 
   320    O    8  S      Cor( 1S)     1.99979     -19.34006
   321    O    8  S      Val( 2S)     1.70679      -1.01484
   322    O    8  S      Ryd( 4S)     0.00053       2.74650
   323    O    8  S      Ryd( 3S)     0.00015       2.09841
   324    O    8  S      Ryd( 5S)     0.00001       8.39387
   325    O    8  px     Val( 2p)     1.76983      -0.35220
   326    O    8  px     Ryd( 4p)     0.00124       1.38190
   327    O    8  px     Ryd( 3p)     0.00011       0.84684
   328    O    8  px     Ryd( 5p)     0.00004       4.68578
   329    O    8  py     Val( 2p)     1.64697      -0.35044
   330    O    8  py     Ryd( 4p)     0.00118       1.42722
   331    O    8  py     Ryd( 3p)     0.00005       0.83920
   332    O    8  py     Ryd( 5p)     0.00004       5.18230
   333    O    8  pz     Val( 2p)     1.44452      -0.30155
   334    O    8  pz     Ryd( 4p)     0.00050       1.04079
   335    O    8  pz     Ryd( 3p)     0.00005       0.58982
   336    O    8  pz     Ryd( 5p)     0.00001       4.09698
   337    O    8  dxy    Ryd( 3d)     0.00757       2.06767
   338    O    8  dxy    Ryd( 4d)     0.00008       3.02384
   339    O    8  dxy    Ryd( 5d)     0.00002       6.79319
   340    O    8  dxz    Ryd( 3d)     0.00206       1.46363
   341    O    8  dxz    Ryd( 4d)     0.00001       1.49273
   342    O    8  dxz    Ryd( 5d)     0.00001       6.59417
   343    O    8  dyz    Ryd( 4d)     0.00463       1.54141
   344    O    8  dyz    Ryd( 3d)     0.00004       1.49655
   345    O    8  dyz    Ryd( 5d)     0.00002       6.57728
   346    O    8  dx2y2  Ryd( 3d)     0.00573       1.83714
   347    O    8  dx2y2  Ryd( 4d)     0.00007       1.99071
   348    O    8  dx2y2  Ryd( 5d)     0.00005       6.71719
   349    O    8  dz2    Ryd( 3d)     0.00275       1.64458
   350    O    8  dz2    Ryd( 4d)     0.00009       2.33886
   351    O    8  dz2    Ryd( 5d)     0.00000       6.67583
   352    O    8  f(0)   Ryd( 4f)     0.00011       3.21414
   353    O    8  f(0)   Ryd( 5f)     0.00000       5.40026
   354    O    8  f(C1)  Ryd( 4f)     0.00007       3.39580
   355    O    8  f(C1)  Ryd( 5f)     0.00001       5.51468
   356    O    8  f(S1)  Ryd( 4f)     0.00010       3.67903
   357    O    8  f(S1)  Ryd( 5f)     0.00001       5.69580
   358    O    8  f(C2)  Ryd( 4f)     0.00006       3.16470
   359    O    8  f(C2)  Ryd( 5f)     0.00001       5.61760
   360    O    8  f(S2)  Ryd( 4f)     0.00022       3.26768
   361    O    8  f(S2)  Ryd( 5f)     0.00000       5.51826
   362    O    8  f(C3)  Ryd( 4f)     0.00035       4.14480
   363    O    8  f(C3)  Ryd( 5f)     0.00001       6.00205
   364    O    8  f(S3)  Ryd( 4f)     0.00038       3.68894
   365    O    8  f(S3)  Ryd( 5f)     0.00003       5.86201
 
   366    O    9  S      Cor( 1S)     1.99978     -19.47023
   367    O    9  S      Val( 2S)     1.67699      -1.04607
   368    O    9  S      Ryd( 3S)     0.00043       1.74595
   369    O    9  S      Ryd( 4S)     0.00011       2.25419
   370    O    9  S      Ryd( 5S)     0.00001       9.53933
   371    O    9  px     Val( 2p)     1.47270      -0.37138
   372    O    9  px     Ryd( 3p)     0.00062       1.20397
   373    O    9  px     Ryd( 4p)     0.00011       1.39336
   374    O    9  px     Ryd( 5p)     0.00003       4.67275
   375    O    9  py     Val( 2p)     1.68707      -0.41294
   376    O    9  py     Ryd( 3p)     0.00082       1.07264
   377    O    9  py     Ryd( 4p)     0.00008       1.10355
   378    O    9  py     Ryd( 5p)     0.00006       4.45807
   379    O    9  pz     Val( 2p)     1.84390      -0.42380
   380    O    9  pz     Ryd( 4p)     0.00105       0.87936
   381    O    9  pz     Ryd( 3p)     0.00001       0.83790
   382    O    9  pz     Ryd( 5p)     0.00000       3.80149
   383    O    9  dxy    Ryd( 3d)     0.00569       1.98355
   384    O    9  dxy    Ryd( 4d)     0.00012       2.43002
   385    O    9  dxy    Ryd( 5d)     0.00004       6.73578
   386    O    9  dxz    Ryd( 3d)     0.00031       1.20244
   387    O    9  dxz    Ryd( 4d)     0.00007       1.97030
   388    O    9  dxz    Ryd( 5d)     0.00001       6.35966
   389    O    9  dyz    Ryd( 3d)     0.00444       1.33582
   390    O    9  dyz    Ryd( 4d)     0.00003       1.72554
   391    O    9  dyz    Ryd( 5d)     0.00003       6.38330
   392    O    9  dx2y2  Ryd( 3d)     0.00401       1.77043
   393    O    9  dx2y2  Ryd( 4d)     0.00007       2.19613
   394    O    9  dx2y2  Ryd( 5d)     0.00006       6.75831
   395    O    9  dz2    Ryd( 3d)     0.00299       1.53340
   396    O    9  dz2    Ryd( 4d)     0.00013       2.37953
   397    O    9  dz2    Ryd( 5d)     0.00001       6.60991
   398    O    9  f(0)   Ryd( 4f)     0.00049       2.80231
   399    O    9  f(0)   Ryd( 5f)     0.00001       5.88018
   400    O    9  f(C1)  Ryd( 4f)     0.00022       3.42658
   401    O    9  f(C1)  Ryd( 5f)     0.00001       6.17229
   402    O    9  f(S1)  Ryd( 4f)     0.00014       3.36580
   403    O    9  f(S1)  Ryd( 5f)     0.00001       6.09646
   404    O    9  f(C2)  Ryd( 4f)     0.00005       2.85689
   405    O    9  f(C2)  Ryd( 5f)     0.00001       6.04529
   406    O    9  f(S2)  Ryd( 4f)     0.00005       2.88466
   407    O    9  f(S2)  Ryd( 5f)     0.00001       5.92665
   408    O    9  f(C3)  Ryd( 4f)     0.00010       4.44743
   409    O    9  f(C3)  Ryd( 5f)     0.00005       6.50122
   410    O    9  f(S3)  Ryd( 4f)     0.00008       3.81099
   411    O    9  f(S3)  Ryd( 5f)     0.00002       6.40741
 
   412    C   10  S      Cor( 1S)     1.99924     -10.42395
   413    C   10  S      Val( 2S)     0.83175      -0.10635
   414    C   10  S      Ryd( 3S)     0.00731       1.79223
   415    C   10  S      Ryd( 4S)     0.00023       2.33909
   416    C   10  S      Ryd( 5S)     0.00001       2.35630
   417    C   10  px     Val( 2p)     1.00839       0.03815
   418    C   10  px     Ryd( 4p)     0.01294       1.74435
   419    C   10  px     Ryd( 5p)     0.00003       3.20967
   420    C   10  px     Ryd( 3p)     0.00003       0.87698
   421    C   10  py     Val( 2p)     0.92000      -0.10572
   422    C   10  py     Ryd( 4p)     0.00475       1.15583
   423    C   10  py     Ryd( 5p)     0.00008       1.68073
   424    C   10  py     Ryd( 3p)     0.00006       0.63772
   425    C   10  pz     Val( 2p)     0.94176      -0.11026
   426    C   10  pz     Ryd( 4p)     0.00049       1.03542
   427    C   10  pz     Ryd( 5p)     0.00001       1.32699
   428    C   10  pz     Ryd( 3p)     0.00003       0.45919
   429    C   10  dxy    Ryd( 3d)     0.00020       1.56654
   430    C   10  dxy    Ryd( 5d)     0.00038       3.37699
   431    C   10  dxy    Ryd( 4d)     0.00002       2.66649
   432    C   10  dxz    Ryd( 3d)     0.00016       1.39801
   433    C   10  dxz    Ryd( 5d)     0.00056       3.22039
   434    C   10  dxz    Ryd( 4d)     0.00004       2.57320
   435    C   10  dyz    Ryd( 3d)     0.00001       1.21095
   436    C   10  dyz    Ryd( 5d)     0.00000       2.55482
   437    C   10  dyz    Ryd( 4d)     0.00001       2.06714
   438    C   10  dx2y2  Ryd( 3d)     0.00114       1.95444
   439    C   10  dx2y2  Ryd( 4d)     0.00018       4.75429
   440    C   10  dx2y2  Ryd( 5d)     0.00005       4.93499
   441    C   10  dz2    Ryd( 3d)     0.00053       1.57140
   442    C   10  dz2    Ryd( 4d)     0.00013       3.32490
   443    C   10  dz2    Ryd( 5d)     0.00003       4.10913
   444    C   10  f(0)   Ryd( 4f)     0.00020       2.25811
   445    C   10  f(0)   Ryd( 5f)     0.00006       2.51857
   446    C   10  f(C1)  Ryd( 4f)     0.00240       2.90976
   447    C   10  f(C1)  Ryd( 5f)     0.00001       3.20644
   448    C   10  f(S1)  Ryd( 4f)     0.00006       2.06589
   449    C   10  f(S1)  Ryd( 5f)     0.00003       2.48692
   450    C   10  f(C2)  Ryd( 4f)     0.00028       2.42628
   451    C   10  f(C2)  Ryd( 5f)     0.00017       2.58491
   452    C   10  f(S2)  Ryd( 4f)     0.00004       2.24599
   453    C   10  f(S2)  Ryd( 5f)     0.00002       2.25513
   454    C   10  f(C3)  Ryd( 4f)     0.00371       3.41745
   455    C   10  f(C3)  Ryd( 5f)     0.00003       3.94328
   456    C   10  f(S3)  Ryd( 5f)     0.00069       3.06871
   457    C   10  f(S3)  Ryd( 4f)     0.00034       2.89490
 
   458    N   11  S      Cor( 1S)     1.99960     -14.49057
   459    N   11  S      Val( 2S)     1.58904      -0.66339
   460    N   11  S      Ryd( 3S)     0.00028       1.17269
   461    N   11  S      Ryd( 4S)     0.00013       9.24656
   462    N   11  px     Val( 2p)     1.48902      -0.21903
   463    N   11  px     Ryd( 3p)     0.00127       0.89981
   464    N   11  px     Ryd( 5p)     0.00019       5.66081
   465    N   11  px     Ryd( 4p)     0.00004       1.12614
   466    N   11  py     Val( 2p)     1.08371      -0.16400
   467    N   11  py     Ryd( 4p)     0.00021       0.87130
   468    N   11  py     Ryd( 5p)     0.00002       3.92697
   469    N   11  py     Ryd( 3p)     0.00002       0.58555
   470    N   11  pz     Val( 2p)     1.07368      -0.16340
   471    N   11  pz     Ryd( 4p)     0.00065       0.82542
   472    N   11  pz     Ryd( 5p)     0.00001       3.65959
   473    N   11  pz     Ryd( 3p)     0.00004       0.55665
   474    N   11  dxy    Ryd( 4d)     0.00520       1.83833
   475    N   11  dxy    Ryd( 3d)     0.00007       1.35710
   476    N   11  dxy    Ryd( 5d)     0.00001       4.79751
   477    N   11  dxz    Ryd( 4d)     0.00499       1.56091
   478    N   11  dxz    Ryd( 3d)     0.00004       1.20040
   479    N   11  dxz    Ryd( 5d)     0.00005       4.79093
   480    N   11  dyz    Ryd( 4d)     0.00002       1.36971
   481    N   11  dyz    Ryd( 3d)     0.00003       0.99292
   482    N   11  dyz    Ryd( 5d)     0.00000       4.82576
   483    N   11  dx2y2  Ryd( 3d)     0.00821       2.00406
   484    N   11  dx2y2  Ryd( 4d)     0.00017       2.71456
   485    N   11  dx2y2  Ryd( 5d)     0.00002       5.15409
   486    N   11  dz2    Ryd( 3d)     0.00278       1.59498
   487    N   11  dz2    Ryd( 4d)     0.00011       1.95424
   488    N   11  dz2    Ryd( 5d)     0.00001       4.91845
   489    N   11  f(0)   Ryd( 5f)     0.00011       3.71415
   490    N   11  f(0)   Ryd( 4f)     0.00002       2.85788
   491    N   11  f(C1)  Ryd( 5f)     0.00018       4.18719
   492    N   11  f(C1)  Ryd( 4f)     0.00001       3.58535
   493    N   11  f(S1)  Ryd( 5f)     0.00002       3.54179
   494    N   11  f(S1)  Ryd( 4f)     0.00001       2.73781
   495    N   11  f(C2)  Ryd( 5f)     0.00018       3.86188
   496    N   11  f(C2)  Ryd( 4f)     0.00002       2.95974
   497    N   11  f(S2)  Ryd( 5f)     0.00000       3.72404
   498    N   11  f(S2)  Ryd( 4f)     0.00000       3.31816
   499    N   11  f(C3)  Ryd( 5f)     0.00025       4.34127
   500    N   11  f(C3)  Ryd( 4f)     0.00000       3.57345
   501    N   11  f(S3)  Ryd( 5f)     0.00024       4.30194
   502    N   11  f(S3)  Ryd( 4f)     0.00004       3.13804
 
   503    H   12  S      Val( 1S)     0.75608       0.03826
   504    H   12  S      Ryd( 3S)     0.00058       1.46181
   505    H   12  S      Ryd( 2S)     0.00031       1.33643
   506    H   12  S      Ryd( 4S)     0.00004       1.93203
   507    H   12  px     Ryd( 2p)     0.00053       0.97597
   508    H   12  px     Ryd( 4p)     0.00012       4.02321
   509    H   12  px     Ryd( 3p)     0.00006       3.43874
   510    H   12  py     Ryd( 2p)     0.00189       0.91874
   511    H   12  py     Ryd( 4p)     0.00013       4.80050
   512    H   12  py     Ryd( 3p)     0.00003       3.78302
   513    H   12  pz     Ryd( 2p)     0.00019       0.63365
   514    H   12  pz     Ryd( 4p)     0.00008       3.54522
   515    H   12  pz     Ryd( 3p)     0.00004       2.54344
   516    H   12  dxy    Ryd( 3d)     0.00007       2.03589
   517    H   12  dxy    Ryd( 4d)     0.00001       4.57245
   518    H   12  dxz    Ryd( 3d)     0.00003       1.42757
   519    H   12  dxz    Ryd( 4d)     0.00000       3.83088
   520    H   12  dyz    Ryd( 3d)     0.00007       1.57080
   521    H   12  dyz    Ryd( 4d)     0.00001       4.08171
   522    H   12  dx2y2  Ryd( 3d)     0.00008       2.09741
   523    H   12  dx2y2  Ryd( 4d)     0.00002       4.61162
   524    H   12  dz2    Ryd( 3d)     0.00006       2.11825
   525    H   12  dz2    Ryd( 4d)     0.00001       4.20498
 
   526    H   13  S      Val( 1S)     0.76980       0.01815
   527    H   13  S      Ryd( 3S)     0.00034       1.34975
   528    H   13  S      Ryd( 2S)     0.00015       1.07836
   529    H   13  S      Ryd( 4S)     0.00006       2.18195
   530    H   13  px     Ryd( 2p)     0.00062       0.97956
   531    H   13  px     Ryd( 4p)     0.00007       4.25510
   532    H   13  px     Ryd( 3p)     0.00007       2.71228
   533    H   13  py     Ryd( 2p)     0.00046       0.91654
   534    H   13  py     Ryd( 4p)     0.00018       4.58996
   535    H   13  py     Ryd( 3p)     0.00006       3.45273
   536    H   13  pz     Ryd( 2p)     0.00079       0.59791
   537    H   13  pz     Ryd( 4p)     0.00003       3.88214
   538    H   13  pz     Ryd( 3p)     0.00005       1.78540
   539    H   13  dxy    Ryd( 3d)     0.00010       2.02034
   540    H   13  dxy    Ryd( 4d)     0.00003       4.35983
   541    H   13  dxz    Ryd( 3d)     0.00001       1.44906
   542    H   13  dxz    Ryd( 4d)     0.00000       3.66750
   543    H   13  dyz    Ryd( 3d)     0.00003       1.57378
   544    H   13  dyz    Ryd( 4d)     0.00001       3.89014
   545    H   13  dx2y2  Ryd( 3d)     0.00005       1.83874
   546    H   13  dx2y2  Ryd( 4d)     0.00003       4.44014
   547    H   13  dz2    Ryd( 3d)     0.00002       1.91396
   548    H   13  dz2    Ryd( 4d)     0.00002       3.86608
 
   549    H   14  S      Val( 1S)     0.77091       0.01660
   550    H   14  S      Ryd( 3S)     0.00034       1.87031
   551    H   14  S      Ryd( 2S)     0.00012       0.84267
   552    H   14  S      Ryd( 4S)     0.00005       1.87414
   553    H   14  px     Ryd( 2p)     0.00033       1.31585
   554    H   14  px     Ryd( 4p)     0.00006       3.60501
   555    H   14  px     Ryd( 3p)     0.00007       2.92632
   556    H   14  py     Ryd( 2p)     0.00052       1.17273
   557    H   14  py     Ryd( 4p)     0.00011       4.72785
   558    H   14  py     Ryd( 3p)     0.00007       3.17272
   559    H   14  pz     Ryd( 2p)     0.00012       0.93650
   560    H   14  pz     Ryd( 4p)     0.00010       2.92394
   561    H   14  pz     Ryd( 3p)     0.00005       2.40404
   562    H   14  dxy    Ryd( 3d)     0.00009       2.03717
   563    H   14  dxy    Ryd( 4d)     0.00003       4.32790
   564    H   14  dxz    Ryd( 3d)     0.00001       1.26656
   565    H   14  dxz    Ryd( 4d)     0.00000       3.82280
   566    H   14  dyz    Ryd( 3d)     0.00001       1.46418
   567    H   14  dyz    Ryd( 4d)     0.00001       4.01886
   568    H   14  dx2y2  Ryd( 3d)     0.00004       1.89068
   569    H   14  dx2y2  Ryd( 4d)     0.00004       4.38315
   570    H   14  dz2    Ryd( 3d)     0.00001       1.78913
   571    H   14  dz2    Ryd( 4d)     0.00002       3.94454
 
   572    H   15  S      Val( 1S)     0.76012       0.02646
   573    H   15  S      Ryd( 3S)     0.00046       1.97325
   574    H   15  S      Ryd( 2S)     0.00015       0.69410
   575    H   15  S      Ryd( 4S)     0.00004       2.01154
   576    H   15  px     Ryd( 2p)     0.00072       0.95568
   577    H   15  px     Ryd( 4p)     0.00010       4.17552
   578    H   15  px     Ryd( 3p)     0.00006       3.31991
   579    H   15  py     Ryd( 2p)     0.00071       0.87169
   580    H   15  py     Ryd( 3p)     0.00017       4.18663
   581    H   15  py     Ryd( 4p)     0.00005       4.20426
   582    H   15  pz     Ryd( 2p)     0.00019       0.58831
   583    H   15  pz     Ryd( 4p)     0.00003       3.93333
   584    H   15  pz     Ryd( 3p)     0.00005       2.09375
   585    H   15  dxy    Ryd( 3d)     0.00009       2.19735
   586    H   15  dxy    Ryd( 4d)     0.00003       4.48215
   587    H   15  dxz    Ryd( 3d)     0.00003       1.59171
   588    H   15  dxz    Ryd( 4d)     0.00001       3.71593
   589    H   15  dyz    Ryd( 3d)     0.00002       1.65427
   590    H   15  dyz    Ryd( 4d)     0.00001       3.94353
   591    H   15  dx2y2  Ryd( 3d)     0.00004       2.22081
   592    H   15  dx2y2  Ryd( 4d)     0.00002       4.54589
   593    H   15  dz2    Ryd( 3d)     0.00003       2.26638
   594    H   15  dz2    Ryd( 4d)     0.00002       4.16631
 
   595    H   16  S      Val( 1S)     0.48820       0.12506
   596    H   16  S      Ryd( 4S)     0.00114       1.84471
   597    H   16  S      Ryd( 2S)     0.00013       0.72282
   598    H   16  S      Ryd( 3S)     0.00012       1.46805
   599    H   16  px     Ryd( 3p)     0.00019       3.15302
   600    H   16  px     Ryd( 2p)     0.00039       3.13118
   601    H   16  px     Ryd( 4p)     0.00003       3.19733
   602    H   16  py     Ryd( 2p)     0.00023       2.22079
   603    H   16  py     Ryd( 3p)     0.00002       2.61551
   604    H   16  py     Ryd( 4p)     0.00002       3.08090
   605    H   16  pz     Ryd( 2p)     0.00050       1.85575
   606    H   16  pz     Ryd( 3p)     0.00004       2.34823
   607    H   16  pz     Ryd( 4p)     0.00001       2.84961
   608    H   16  dxy    Ryd( 3d)     0.00003       1.37445
   609    H   16  dxy    Ryd( 4d)     0.00001       4.43383
   610    H   16  dxz    Ryd( 3d)     0.00009       1.10071
   611    H   16  dxz    Ryd( 4d)     0.00000       4.25387
   612    H   16  dyz    Ryd( 3d)     0.00003       1.14657
   613    H   16  dyz    Ryd( 4d)     0.00000       3.81551
   614    H   16  dx2y2  Ryd( 3d)     0.00007       1.72948
   615    H   16  dx2y2  Ryd( 4d)     0.00001       4.63641
   616    H   16  dz2    Ryd( 3d)     0.00012       1.61627
   617    H   16  dz2    Ryd( 4d)     0.00001       4.07235

 WARNING:  1 low occupancy (<1.9990e) core orbital  found on  C    3
           1 low occupancy (<1.9990e) core orbital  found on  C    6

 WARNING:  Population inversion found on atom  C    1
           Population inversion found on atom  C    2
           Population inversion found on atom  C    3
           Population inversion found on atom  C    4
           Population inversion found on atom  C    5
           Population inversion found on atom  C    6
           Population inversion found on atom  C    7
           Population inversion found on atom  O    8
           Population inversion found on atom  O    9
           Population inversion found on atom  C   10
           Population inversion found on atom  N   11
           Population inversion found on atom  H   12
           Population inversion found on atom  H   13
           Population inversion found on atom  H   14
           Population inversion found on atom  H   15
           Population inversion found on atom  H   16


 Summary of Natural Population Analysis:                  
                                                          
                                       Natural Population 
                Natural  -----------------------------------------------
    Atom  No    Charge         Core      Valence    Rydberg      Total
 -----------------------------------------------------------------------
      C    1   -0.09023      1.99909     4.07001    0.02113     6.09023
      C    2   -0.14641      1.99909     4.12773    0.01959     6.14641
      C    3   -0.20422      1.99873     4.18287    0.02262     6.20422
      C    4   -0.13506      1.99907     4.11888    0.01711     6.13506
      C    5   -0.13730      1.99911     4.11682    0.02138     6.13730
      C    6   -0.21172      1.99887     4.18326    0.02959     6.21172
      C    7    0.78470      1.99908     3.18365    0.03257     5.21530
      O    8   -0.59634      1.99979     6.56811    0.02845     8.59634
      O    9   -0.70301      1.99978     6.68066    0.02257     8.70301
      C   10    0.26142      1.99924     3.70190    0.03745     5.73858
      N   11   -0.26071      1.99960     5.23545    0.02566     7.26071
      H   12    0.23955      0.00000     0.75608    0.00438     0.76045
      H   13    0.22702      0.00000     0.76980    0.00319     0.77298
      H   14    0.22690      0.00000     0.77091    0.00219     0.77310
      H   15    0.23687      0.00000     0.76012    0.00301     0.76313
      H   16    0.50861      0.00000     0.48820    0.00319     0.49139
 =======================================================================
   * Total *    0.00006     21.99145    53.71443    0.29406    75.99994

[...]
     6         -1.29132667          0.46077358         -2.64929620
     6          1.17542068         -0.41943236         -2.93995882
     6          2.67055433         -0.95303851         -0.83961004
     6          1.69339397         -0.60446402          1.56007100
     6         -0.76650713          0.27330879          1.85294170
     6         -1.90157906          0.67827046          4.39689127
     8         -4.01071659          1.43040367          4.75247937
     8         -0.30922673          0.10948498          6.29219994
     6          2.18793619         -0.78062336         -5.43269524
     7          2.99729826         -1.06934021         -7.42305774
     1         -4.15915386          1.48399297          0.04129727
     1         -2.42174717          0.86422069         -4.30061299
     1          4.57716217         -1.63336850         -1.10350654
     1          2.82895905         -1.00973904          3.20618805
     1         -1.19897351          0.42655707          7.85531499

 Electric dipole moment (dipole orientation):
 (Debye = 10**-18 statcoulomb cm , SI units = C m)
                  (au)            (Debye)         (10**-30 SI)
   Tot        0.140730D+01      0.357700D+01      0.119316D+02
   x          0.000000D+00      0.000000D+00      0.000000D+00
   y          0.000000D+00      0.000000D+00      0.000000D+00
   z          0.140730D+01      0.357700D+01      0.119316D+02

 Dipole polarizability, Alpha (dipole orientation).
 (esu units = cm**3 , SI units = C**2 m**2 J**-1)
 Alpha(0;0):
               (au)            (10**-24 esu)      (10**-40 SI)
   iso        0.106042D+03      0.157138D+02      0.174840D+02
   aniso      0.880916D+02      0.130538D+02      0.145243D+02
   xx         0.104438D+03      0.154760D+02      0.172194D+02
   yx        -0.164989D+02     -0.244488D+01     -0.272029D+01
   yy         0.640823D+02      0.949602D+01      0.105657D+02
   zx        -0.207215D+02     -0.307060D+01     -0.341651D+01
   zy         0.738793D+01      0.109478D+01      0.121811D+01
   zz         0.149607D+03      0.221694D+02      0.246668D+02

 ----------------------------------------------------------------------
 Unable to Open any file for archive entry.
 1\1\GINC-AE06\Freq\RM062X\Aug-CC-pVTZ\C8H5N1O2\DHUANG\05-Sep-2022\0\\#
 N Geom=AllCheck Guess=TCheck SCRF=Check GenChk RM062X/Aug-CC-pVTZ Freq
 \\4-CN_benzoic-acid\\0,1\C,-1.2373773163,0.3017077992,-0.0009316763\C,
 -1.1537071854,-1.0774145821,-0.001166819\C,0.1003939065,-1.6871462847,
 -0.0002209547\C,1.2645717018,-0.9218088322,0.0009513928\C,1.1732518962
 ,0.458627312,0.0011799356\C,-0.07683512,1.0681702987,0.0002325368\C,-0
 .2261422126,2.55028724,0.0004109947\O,-1.2793540622,3.1249710269,-0.00
 01389323\O,0.9531866791,3.1950575558,0.0018176543\C,0.1939126537,-3.12
 06354466,-0.0004569994\N,0.2690619093,-4.2653963093,-0.0006471157\H,-2
 .1941556719,0.8043225635,-0.0016472761\H,-2.0451406241,-1.6876237988,-
 0.0020711422\H,2.2269323956,-1.4126453328,0.0016719266\H,2.0664842963,
 1.0652753475,0.0020812246\H,0.7597167541,4.1419514432,0.0020352503\\Ve
 rsion=ES64L-G16RevC.01\State=1-A\HF=-513.0651747\RMSD=3.266e-09\RMSF=4
 .471e-05\ZeroPoint=0.1151594\Thermal=0.1240449\ETot=-512.9411298\HTot=
 -512.9401857\GTot=-512.9847791\Dipole=0.4719851,1.3257921,0.0006417\Di
 poleDeriv=-0.0209497,0.037072,0.000058,-0.2051556,0.0004886,-0.0001659
 ,-0.0000084,0.0000892,-0.0769941,-0.0322324,0.027123,0.0000484,0.20961
 15,-0.0766344,0.000182,0.000089,0.0000204,-0.0842222,0.2071613,0.01382
 6,0.0001394,0.0080216,0.100785,0.0000157,0.0001377,0.0000269,0.0493852
 ,-0.0027025,-0.0292092,0.0000686,-0.1914128,-0.1263583,-0.0001742,0.00
 00366,-0.0000377,-0.0876289,-0.046161,-0.0374134,0.0000212,0.2000693,0
 .0469264,0.0001962,0.0000761,0.0000463,-0.0802234,0.0327975,0.0236749,
 0.0000523,0.0277101,-0.5607465,-0.0001117,0.0000371,-0.0000721,-0.0234
 554,1.6609083,0.0936776,0.0012411,0.0202042,2.2130625,0.0005165,0.0012
 321,0.0006545,0.3373479,-1.0069832,0.3054126,-0.0005282,0.3679114,-1.1
 448597,0.0001287,-0.000361,-0.0000329,-0.3643842,-0.9800919,-0.515252,
 -0.0007012,-0.4999548,-1.0125634,-0.0006262,-0.0008314,-0.000742,-0.35
 65779,0.0647378,-0.0172619,-0.0000751,-0.019606,0.3563372,0.0000316,-0
 .0000759,0.0000318,0.1472035,-0.3013359,0.0089182,0.0000205,0.0097718,
 -0.4397517,-0.0000191,0.0000207,-0.0000177,-0.3227475,0.0502891,0.0128
 538,-0.0000662,0.0261395,0.0992306,0.0000189,-0.0000602,0.0000087,0.12
 83998,0.0355646,-0.0363912,-0.0000941,-0.0398905,0.038923,-0.000057,-0
 .0000908,-0.0000596,0.1357279,0.0231562,0.0352209,-0.0000892,0.0382324
 ,0.0476387,0.0000122,-0.0000926,0.0000032,0.1356785,0.0430502,-0.03277
 08,-0.0000811,-0.0291099,0.0830981,-0.0000313,-0.0000833,-0.0000338,0.
 129847,0.2727915,0.1105195,-0.0000145,0.0774579,0.374424,0.0000834,-0.
 0000256,0.0001149,0.3326441\Polar=100.8411389,-4.6384635,159.0897376,0
 .0355527,0.020544,58.1956408\Quadrupole=6.6002451,-9.3333653,2.7331202
 ,6.0253453,0.005096,0.0025375\PG=C01 [X(C8H5N1O2)]\NImag=0\\0.73147617
 ,-0.04208364,0.71440555,0.00049758,0.00008777,0.14330441,-0.13519334,-
 0.02581847,-0.00006748,0.71929278,0.05138312,-0.35514269,-0.00001981,0
 .04986561,0.71672769,-0.00005076,-0.00008790,-0.06418376,0.00051097,0.
 00017169,0.13834809,0.03248019,0.09113185,0.00004281,-0.29064684,0.035
 04140,-0.00018590,0.66465215,0.03204895,-0.02216278,0.00002164,0.10533
 858,-0.15353453,0.00007123,-0.00041160,0.68504970,0.00002969,0.0000721
 7,0.00603544,-0.00017090,0.00001078,-0.06504565,0.00044652,0.00011891,
 0.14662034,-0.01608475,-0.03223819,-0.00001663,-0.05907373,0.02017328,
 -0.00005366,-0.27187879,-0.12174153,-0.00020540,0.73366861,-0.03262075
 ,-0.06680130,-0.00004170,-0.03715312,0.07515524,-0.00001779,-0.0513775
 6,-0.17456958,-0.00006841,-0.04553897,0.70070289,-0.00001602,-0.000041
 02,-0.00513440,-0.00006653,0.00003157,0.00851314,-0.00019046,-0.000129
 34,-0.06522504,0.00050432,0.00008609,0.13802902,-0.05953408,-0.0367825
 4,-0.00006479,-0.02478755,0.03745736,-0.00000934,0.04665020,-0.0227670
 8,0.00003014,-0.13474011,-0.02430461,-0.00006500,0.72666739,0.01964054
 ,0.07553800,0.00003215,0.03784536,-0.05800502,0.00002111,-0.08254336,-
 0.03679484,-0.00008066,0.05375702,-0.34954308,-0.00001790,0.04484902,0
 .71354798,-0.00005313,-0.00001638,0.00679617,-0.00000858,0.00002047,-0
 .00500339,0.00001674,-0.00002867,0.00607562,-0.00004810,-0.00008356,-0
 .06435089,0.00051394,0.00016229,0.14222708,-0.27419124,-0.05224253,-0.
 00018976,0.04654939,-0.07950705,0.00001800,-0.07775647,-0.00542337,-0.
 00006257,0.03166427,0.08939797,0.00003977,-0.29710129,0.03799181,-0.00
 019283,0.72415674,-0.12447900,-0.18192610,-0.00013042,-0.02246912,-0.0
 3548684,-0.00002747,-0.00515063,-0.00132492,-0.00000339,0.03168555,-0.
 02088634,0.00002198,0.11005079,-0.16335801,0.00007536,0.00138252,0.653
 91478,-0.00020604,-0.00006745,-0.06645582,0.00003087,-0.00007780,0.006
 41057,-0.00006235,-0.00000367,-0.00649395,0.00002677,0.00007027,0.0070
 7163,-0.00017717,0.00001486,-0.06494547,0.00049735,0.00011869,0.148046
 60,0.01410627,-0.02275526,0.00000661,-0.00495446,-0.00784350,-0.000012
 59,-0.00518478,0.00032751,-0.00000345,-0.00608402,0.00501275,-0.000011
 80,0.00642066,0.02800685,0.00000930,-0.09752632,-0.00344497,-0.0000131
 6,0.91890232,-0.01299652,-0.02785513,-0.00001925,-0.00329117,0.0029269
 0,-0.00000487,-0.00027680,0.00186265,0.00000050,0.00147185,0.00426993,
 -0.00000057,0.01494020,-0.01313248,0.00000864,0.00760481,-0.20443567,-
 0.00000841,-0.18057919,0.72908337,0.00000467,-0.00002715,0.00252208,-0
 .00001131,-0.00000722,0.00825801,-0.00000352,-0.00000006,-0.00113882,-
 0.00001373,0.00000407,0.00882187,0.00001066,0.00002156,0.00098344,-0.0
 0001024,-0.00003804,-0.08517953,0.00049459,0.00006504,0.21585182,-0.00
 655359,-0.00533054,-0.00000809,0.00110166,0.00181992,0.00000173,0.0004
 7926,-0.00035704,0.00000026,0.00049359,0.00088455,0.00000174,0.0027479
 7,0.00120233,0.00000084,-0.01226728,0.02866174,-0.00001546,-0.59818585
 ,0.28460103,-0.00027910,0.72367637,0.00320055,-0.00086494,0.00000280,0
 .00067817,0.00115984,0.00000102,0.00167227,-0.00073075,0.00000121,0.00
 172268,-0.00282886,0.00000200,-0.00643463,-0.00617039,-0.00000738,0.04
 770183,-0.02985237,0.00001846,0.27557007,-0.28095897,0.00012693,-0.320
 76301,0.28078473,-0.00000370,-0.00000384,0.00016186,0.00000170,0.00000
 136,-0.00090507,0.00000039,-0.00000017,0.00016755,0.00000332,0.0000003
 7,-0.00186038,-0.00000241,-0.00000288,0.00229657,-0.00001130,0.0000118
 0,0.02173525,-0.00027785,0.00012859,-0.07954112,0.00040968,-0.00014929
 ,0.03352066,0.00115718,0.00071711,-0.00000022,0.00097783,0.00005762,0.
 00000143,0.00037062,-0.00023381,0.00000016,0.00089071,-0.00100845,0.00
 000140,-0.00402479,0.00106467,-0.00000273,-0.00111255,-0.01114637,-0.0
 0001790,-0.23402350,-0.05881388,-0.00018021,-0.11459156,-0.01194751,-0
 .00013093,0.41826635,0.00579163,-0.00516523,0.00000362,-0.00141737,-0.
 00225747,-0.00000113,-0.00118193,-0.00074981,-0.00000120,-0.00046463,0
 .00068229,-0.00000014,-0.00104670,-0.00496481,-0.00000235,-0.04099155,
 -0.03214929,-0.00005521,-0.08638818,-0.17933246,-0.00012697,-0.0004783
 7,0.03902100,0.00000366,0.00020001,0.66926330,0.00000205,-0.00000186,0
 .00126546,0.00000058,-0.00000051,-0.00052290,0.00000003,-0.00000038,0.
 00007764,0.00000155,-0.00000085,-0.00076824,-0.00000464,-0.00000109,0.
 00037763,-0.00002526,-0.00002039,0.01180293,-0.00019879,-0.00010409,-0
 .06559219,-0.00012259,-0.00000652,0.02975680,0.00034749,0.00025891,0.0
 3864129,-0.00548980,0.00396903,-0.00001089,0.00395145,0.03385776,0.000
 00868,-0.08840702,0.01342755,-0.00002000,0.00963800,-0.02845464,-0.000
 00039,-0.00417754,-0.00510763,-0.00001181,-0.00318492,-0.00019969,-0.0
 0000178,-0.00053227,0.00014726,0.00000080,0.00036022,0.00001154,0.0000
 0012,0.00022904,-0.00007915,0.00000013,0.13046232,0.00469836,0.0049668
 9,0.00000317,0.01622879,-0.03268993,0.00000619,0.01339618,-0.29220349,
 -0.00003944,-0.01076519,-0.03857956,-0.00001839,-0.00581772,0.00365809
 ,-0.00000623,-0.00010184,-0.00035441,0.00000007,-0.00033299,-0.0019075
 0,-0.00000011,-0.00007301,0.00086338,0.00000004,0.00036203,0.00075739,
 0.00000055,-0.09945445,1.64120841,-0.00001049,0.00000307,0.00815308,0.
 00000502,0.00002101,0.00268662,-0.00001999,-0.00003942,-0.06178487,0.0
 0000329,-0.00003406,0.00269224,-0.00001224,-0.00000506,0.00821943,-0.0
 0000177,-0.00000018,-0.00113361,0.00000066,0.00000020,-0.00145891,0.00
 000021,0.00000015,0.00017908,0.00000018,0.00000009,0.00009450,0.000014
 79,0.00025970,0.08764935,0.00101196,-0.00074181,0.00000200,-0.00163660
 ,-0.00295083,-0.00000319,0.02179418,0.00252249,0.00000460,-0.00293522,
 0.00221516,-0.00000313,0.00089100,0.00109237,0.00000228,0.00081559,0.0
 0005256,0.00000042,0.00004121,-0.00013049,-0.00000017,-0.00001321,0.00
 001614,0.,0.00003683,0.00009936,0.00000006,-0.04381393,0.08200208,0.00
 001270,0.02359605,0.00018430,-0.00187151,0.00000017,-0.00791327,0.0027
 7166,-0.00000650,0.00250365,-0.01703898,-0.00000549,0.00718299,0.00408
 720,0.00000680,0.00019508,-0.00173679,0.00000023,-0.00001954,0.0000997
 1,-0.00000003,0.00013670,0.00182387,0.00000039,0.00021634,-0.00089855,
 -0.00000005,-0.00035766,-0.00077349,-0.00000060,0.08199620,-1.28753108
 ,-0.00020753,-0.08425455,1.30196011,0.00000216,-0.00000079,-0.00149510
 ,-0.00000432,-0.00000214,0.00129185,0.00000459,-0.00000540,0.01710819,
 -0.00000200,0.00000261,0.00128751,0.00000216,0.00000082,-0.00149562,0.
 00000041,0.00000004,0.00033009,-0.00000011,0.00000020,0.00020671,0.000
 00002,-0.00000018,0.00000095,-0.00000005,-0.00000009,0.00000811,0.0000
 1270,-0.00020765,-0.03736289,-0.00001526,0.00021282,0.01953353,-0.2877
 8785,0.11701263,-0.00018702,0.00468569,-0.00178142,-0.00000042,0.00165
 696,-0.00091792,-0.00000544,0.00030684,-0.00070939,0.00000098,-0.00253
 329,-0.00386680,-0.00000841,-0.01912261,0.01281444,-0.00001783,-0.0026
 9332,0.00195498,0.00000181,0.00226472,0.00087500,0.00000219,0.00077382
 ,0.00003719,0.00000070,0.00028158,-0.00006145,0.00000008,-0.00008913,-
 0.00010692,0.,0.30267838,0.11863363,-0.11907870,0.00008571,0.02723669,
 -0.00825368,0.00002084,-0.00024229,-0.00497082,-0.00000301,-0.00079570
 ,-0.00091107,-0.00000065,-0.00360810,-0.00201451,-0.00000489,-0.014588
 49,0.01315830,-0.00001101,-0.00245501,0.00056372,-0.00000128,0.0008307
 0,-0.00202190,0.00000024,0.00149258,0.00051683,0.00000165,0.00135363,-
 0.00041763,0.00000097,-0.00023072,-0.00029917,-0.00000022,-0.12624134,
 0.12204121,-0.00018542,0.00008505,-0.04172445,0.00000577,-0.00000488,0
 .00485663,-0.00000559,-0.00000356,0.00768828,0.00000103,-0.00000026,-0
 .00098664,-0.00000815,-0.00000528,0.00631385,-0.00002508,0.00001200,0.
 00494688,0.00000061,0.00000342,-0.00409296,0.00000260,0.00000016,-0.00
 024725,0.00000094,0.00000002,0.00011709,0.00000037,-0.00000019,0.00017
 375,0.,-0.00000012,-0.00013145,0.00020940,-0.00008859,0.02790193,0.007
 15415,0.00327477,0.00000308,-0.25754181,-0.13421465,-0.00021766,-0.017
 81883,-0.01682008,-0.00002251,-0.00326566,0.00376474,-0.00000758,0.000
 14608,0.00081957,0.00000112,0.00133338,0.00137729,-0.00000535,0.000309
 26,0.00018224,0.00000010,-0.00003449,-0.00005322,-0.00000009,0.0000109
 0,0.00011373,0.00000018,0.00015581,-0.00109566,0.00000342,0.00021416,0
 .00049829,-0.00000007,0.00051564,-0.00038879,0.00000417,0.26960574,-0.
 02654778,-0.01153334,-0.00002644,-0.13622554,-0.15109464,-0.00014241,0
 .01399931,0.01096617,0.00001360,0.00313898,-0.00071344,0.00000104,0.00
 098552,-0.00078784,0.00000088,0.00154724,-0.00527209,-0.00000129,-0.00
 164810,0.00052864,-0.00000113,0.00035600,-0.00023513,0.00000010,-0.000
 07596,-0.00081262,-0.00000037,0.00055103,0.00145601,0.00000176,-0.0003
 4308,-0.00022772,-0.00000045,0.00032176,0.00111114,0.00000147,0.143456
 75,0.15606665,-0.00000364,-0.00000070,0.00454032,-0.00021801,-0.000140
 58,-0.03973244,-0.00001584,-0.00001300,0.00408644,-0.00000765,0.000001
 76,0.00645978,0.00000113,0.00000068,-0.00090943,-0.00000501,-0.0000018
 0,0.00773815,-0.00000040,0.00000038,0.00014202,0.00000005,-0.00000017,
 0.00006968,0.00000011,-0.00000009,-0.00013200,0.00000379,0.00000034,-0
 .00411282,-0.00000026,0.00000026,0.00042467,0.00000425,0.00000088,-0.0
 0434960,0.00024143,0.00015255,0.02649971,0.00033502,-0.00071449,0.0000
 0086,-0.00238047,-0.00396750,-0.00000841,-0.01774465,0.01320362,-0.000
 01603,-0.29016070,0.11617496,-0.00019031,0.00385213,-0.00140515,-0.000
 00093,0.00161340,-0.00046336,-0.00000513,0.00016848,-0.00028213,-0.000
 00005,-0.00001827,-0.00000164,0.00000016,0.00001727,0.00008536,0.00000
 003,0.00010934,0.00091075,0.00000392,0.00022851,-0.00043670,-0.0000002
 8,-0.00001899,0.00006965,0.00000088,-0.00080854,0.00070036,-0.00000092
 ,0.30426357,-0.00082961,-0.00098504,-0.00000073,-0.00333664,-0.0016542
 3,-0.00000472,-0.01770363,0.01087311,-0.00001378,0.11818288,-0.1184533
 9,0.00008409,0.02850283,-0.00828019,0.00002170,-0.00069927,-0.00558913
 ,-0.00000323,0.00151640,0.00085645,0.00000176,0.00031842,-0.00094211,-
 0.00000014,-0.00028439,-0.00022723,-0.00000042,-0.00074977,0.00148500,
 0.00000067,0.00040153,-0.00023921,0.00000019,0.00009206,0.00003646,0.0
 0000033,-0.00087326,0.00056421,-0.00000073,-0.12418209,0.12147019,0.00
 000086,-0.00000070,-0.00088720,-0.00000836,-0.00000511,0.00641346,-0.0
 0002268,0.00001285,0.00411297,-0.00019002,0.00008246,-0.03944041,0.000
 00582,-0.00000402,0.00445965,-0.00000546,-0.00000342,0.00753268,0.0000
 0046,0.00000002,0.00023801,0.00000027,-0.00000018,-0.00024229,-0.00000
 008,0.,0.00001236,0.00000354,0.00000209,-0.00418136,-0.00000009,-0.000
 00055,0.00043740,0.00000088,0.00000029,-0.00101675,-0.00000125,0.00000
 063,0.00042832,0.00021204,-0.00008581,0.02639388,-0.00347775,0.0037777
 2,-0.00000793,0.00008795,0.00083515,0.00000107,0.00147768,0.00162436,-
 0.00000494,0.00722994,0.00356190,0.00000273,-0.26000630,-0.13405445,-0
 .00021765,-0.01805429,-0.01690053,-0.00002273,-0.00211205,-0.00212403,
 0.00000091,0.00095264,0.00022670,0.00000033,0.00133861,-0.00042688,0.0
 0000101,0.00038818,0.00016094,0.00000020,-0.00012512,0.00010319,0.0000
 0003,-0.00084781,-0.00097077,-0.00000123,0.00000320,-0.00010536,0.0000
 0093,0.00054266,-0.00037374,0.00000409,0.27201185,0.00360985,-0.000805
 26,0.00000149,0.00093090,-0.00077304,0.00000086,0.00103492,-0.00482891
 ,-0.00000187,-0.02590790,-0.01161799,-0.00002568,-0.13596221,-0.148895
 46,-0.00014019,0.01118875,0.01211646,0.00001114,0.00103879,0.00180093,
 0.00000242,-0.00086700,-0.00000468,-0.00000084,0.00046582,-0.00421765,
 -0.00000112,-0.00129448,-0.00057765,-0.00000136,0.00026348,-0.00026817
 ,0.00000021,0.00072019,0.00064032,0.00000069,-0.00007435,0.00002780,0.
 00000019,0.00031980,0.00106961,0.00000147,0.14450633,0.15633720,-0.000
 00819,0.00000146,0.00659790,0.00000100,0.00000111,-0.00097688,-0.00000
 475,-0.00000126,0.00764552,-0.00000346,-0.00000101,0.00482907,-0.00021
 958,-0.00013793,-0.04088397,-0.00001531,-0.00001358,0.00402402,0.00000
 191,0.00000026,-0.00415049,0.00000019,-0.00000023,0.00063584,0.0000010
 3,-0.00000179,0.00019157,-0.00000010,-0.00000004,0.00020457,0.00000006
 ,0.00000007,-0.00013692,-0.00000091,-0.00000077,0.00036181,0.00000092,
 0.00000017,-0.00109557,0.00000419,0.00000083,-0.00428870,0.00024243,0.
 00015249,0.02715731,0.00059145,-0.00117565,-0.00000013,-0.00043197,-0.
 00022626,0.00000004,-0.00012388,0.00017937,-0.00000014,0.00033103,0.00
 015547,0.00000028,-0.00047050,0.00070785,-0.00000006,-0.00581582,-0.00
 177123,-0.00001052,0.01134837,-0.05240816,-0.00001523,-0.00041218,0.00
 752505,0.00000842,-0.07031674,0.12614748,-0.00000253,0.00002952,-0.000
 05684,0.00000002,-0.00001629,0.00007189,0.,-0.00007064,-0.00009569,-0.
 00000029,0.00002102,-0.00011115,0.00000003,0.00000123,0.00001830,-0.00
 000001,0.00059061,0.00002711,0.00000059,0.06474479,0.00036636,-0.00071
 842,-0.00000018,-0.00049941,0.00015073,-0.00000015,0.00010820,0.000157
 78,0.00000007,0.00013688,0.00000707,0.00000013,-0.00025722,0.00093935,
 0.00000009,-0.00324128,0.00134594,-0.00000540,-0.00616186,-0.03609424,
 -0.00002022,0.00897793,0.00367973,0.00001103,0.07950818,-0.47959076,-0
 .00012290,0.00002580,-0.00013392,0.,-0.00001370,0.00014213,0.00000002,
 -0.00014300,-0.00010050,-0.00000026,0.00003262,-0.00004380,0.00000006,
 -0.00001142,0.00001549,-0.00000002,0.00015946,-0.00000351,0.00000021,-
 0.07898754,0.51024695,0.00000039,-0.00000172,0.00050400,-0.00000043,0.
 00000005,-0.00040829,0.,0.00000029,0.00007032,0.00000037,0.,0.00006173
 ,-0.00000052,0.00000135,-0.00016068,-0.00001093,-0.00000117,0.00456960
 ,0.00000400,-0.00007005,0.00413007,0.00000766,0.00001121,-0.00572814,-
 0.00002061,-0.00007731,-0.01533005,0.00000006,-0.00000012,-0.00001815,
 -0.00000002,0.00000014,-0.00000703,-0.00000029,-0.00000016,0.00018888,
 0.00000009,-0.00000012,-0.00005722,-0.00000003,0.,0.00002798,0.0000007
 5,0.00000010,-0.00011508,0.00001952,0.00013752,0.01227204\\0.00001185,
 -0.00005574,0.00000188,0.00000252,0.00001852,-0.00000148,-0.00005035,0
 .00008564,0.00000015,0.00002815,0.00013309,-0.00000165,0.00004567,-0.0
 0015451,0.00000188,-0.00002647,0.00004767,0.00001931,-0.00011511,-0.00
 001691,-0.00006505,0.00007086,-0.00000215,0.00002491,0.00001026,0.0000
 5563,0.00001936,0.00001763,-0.00006584,0.00000039,0.00000166,-0.000023
 72,-0.00000010,0.00001604,0.00001289,0.00000013,0.00001932,-0.00000801
 ,-0.00000017,-0.00001330,-0.00001750,-0.00000014,-0.00002319,0.0000113
 1,0.00000025,0.00000445,-0.00002036,0.00000032\\\@
 The archive entry for this job was punched.


 AND THIS OUR LIFE, EXEMPT FROM PUBLIC HAUNT,
 FINDS TONGUES IN TREES, BOOKS IN THE RUNNING BROOKS,
 SERMONS IN STONES, AND GOOD IN EVERYTHING.
 I WOULD NOT CHANGE IT. -- W. SHAKESPEARE
 AS YOU LIKE IT, ACT II, SCENE 1.
 Job cpu time:       0 days 16 hours 14 minutes  5.2 seconds.
 Elapsed time:       0 days  0 hours 24 minutes 22.0 seconds.
 File lengths (MBytes):  RWF=    443 Int=      0 D2E=      0 Chk=     35 Scr=      1
 Normal termination of Gaussian 16 at Mon Sep  5 20:44:46 2022.
