 Entering Gaussian System, Link 0=g16
 Initial command:
 /usr/local/gaussian16c01/g16/l1.exe "/scr/dhuang/Gau-126630.inp" -scrdir="/scr/dhuang/"
 Entering Link 1 = /usr/local/gaussian16c01/g16/l1.exe PID=    126631.
  
 Copyright (c) 1988-2019, Gaussian, Inc.  All Rights Reserved.
  
 This is part of the Gaussian(R) 16 program.  It is based on
 the Gaussian(R) 09 system (copyright 2009, Gaussian, Inc.),
 the Gaussian(R) 03 system (copyright 2003, Gaussian, Inc.),
 the Gaussian(R) 98 system (copyright 1998, Gaussian, Inc.),
 the Gaussian(R) 94 system (copyright 1995, Gaussian, Inc.),
 the Gaussian 92(TM) system (copyright 1992, Gaussian, Inc.),
 the Gaussian 90(TM) system (copyright 1990, Gaussian, Inc.),
 the Gaussian 88(TM) system (copyright 1988, Gaussian, Inc.),
 the Gaussian 86(TM) system (copyright 1986, Carnegie Mellon
 University), and the Gaussian 82(TM) system (copyright 1983,
 Carnegie Mellon University). Gaussian is a federally registered
 trademark of Gaussian, Inc.
  
 This software contains proprietary and confidential information,
 including trade secrets, belonging to Gaussian, Inc.
  
 This software is provided under written license and may be
 used, copied, transmitted, or stored only in accord with that
 written license.
  
 The following legend is applicable only to US Government
 contracts under FAR:
  
                    RESTRICTED RIGHTS LEGEND
  
 Use, reproduction and disclosure by the US Government is
 subject to restrictions as set forth in subparagraphs (a)
 and (c) of the Commercial Computer Software - Restricted
 Rights clause in FAR 52.227-19.
  
 Gaussian, Inc.
 340 Quinnipiac St., Bldg. 40, Wallingford CT 06492
  
  
 ---------------------------------------------------------------
 Warning -- This program may not be used in any manner that
 competes with the business of Gaussian, Inc. or will provide
 assistance to any competitor of Gaussian, Inc.  The licensee
 of this program is prohibited from giving any competitor of
 Gaussian, Inc. access to this program.  By using this program,
 the user acknowledges that Gaussian, Inc. is engaged in the
 business of creating and licensing software in the field of
 computational chemistry and represents and warrants to the
 licensee that it is not a competitor of Gaussian, Inc. and that
 it will not use this program in any manner prohibited above.
 ---------------------------------------------------------------
  

 Cite this work as:
 Gaussian 16, Revision C.01,
 M. J. Frisch, G. W. Trucks, H. B. Schlegel, G. E. Scuseria, 
 M. A. Robb, J. R. Cheeseman, G. Scalmani, V. Barone, 
 G. A. Petersson, H. Nakatsuji, X. Li, M. Caricato, A. V. Marenich, 
 J. Bloino, B. G. Janesko, R. Gomperts, B. Mennucci, H. P. Hratchian, 
 J. V. Ortiz, A. F. Izmaylov, J. L. Sonnenberg, D. Williams-Young, 
 F. Ding, F. Lipparini, F. Egidi, J. Goings, B. Peng, A. Petrone, 
 T. Henderson, D. Ranasinghe, V. G. Zakrzewski, J. Gao, N. Rega, 
 G. Zheng, W. Liang, M. Hada, M. Ehara, K. Toyota, R. Fukuda, 
 J. Hasegawa, M. Ishida, T. Nakajima, Y. Honda, O. Kitao, H. Nakai, 
 T. Vreven, K. Throssell, J. A. Montgomery, Jr., J. E. Peralta, 
 F. Ogliaro, M. J. Bearpark, J. J. Heyd, E. N. Brothers, K. N. Kudin, 
 V. N. Staroverov, T. A. Keith, R. Kobayashi, J. Normand, 
 K. Raghavachari, A. P. Rendell, J. C. Burant, S. S. Iyengar, 
 J. Tomasi, M. Cossi, J. M. Millam, M. Klene, C. Adamo, R. Cammi, 
 J. W. Ochterski, R. L. Martin, K. Morokuma, O. Farkas, 
 J. B. Foresman, and D. J. Fox, Gaussian, Inc., Wallingford CT, 2019.
 
 ******************************************
 Gaussian 16:  ES64L-G16RevC.01  3-Jul-2019
                 6-Sep-2022 
 ******************************************
 %nprocshared=40
 Will use up to   40 processors via shared memory.
 %mem=10000MW
 %chk=4-CO2Me.chk
 ------------------------------------
 # opt freq M062x/aug-cc-pvtz pop=nbo
 ------------------------------------
 1/18=20,19=15,26=3,38=1/1,3;
 2/9=110,12=2,17=6,18=5,40=1/2;
 3/5=16,6=1,7=10,11=2,25=1,30=1,71=1,74=-55/1,2,3;
 4//1;
 5/5=2,38=5/2;
 6/7=2,8=2,9=2,10=2,28=1,40=1/1,7;
 7//1,2,3,16;
 1/18=20,19=15,26=3/3(2);
 2/9=110/2;
 99//99;
 2/9=110/2;
 3/5=16,6=1,7=10,11=2,25=1,30=1,71=1,74=-55/1,2,3;
 4/5=5,16=3,69=1/1;
 5/5=2,38=5/2;
 7//1,2,3,16;
 1/18=20,19=15,26=3/3(-5);
 2/9=110/2;
 6/7=2,8=2,9=2,10=2,19=2,28=1,40=1/1,7;
 99/9=1/99;
 --------------------
 4-CO2Me_benzoic-acid
 --------------------
 Symbolic Z-matrix:
 Charge =  0 Multiplicity = 1
 C                    -1.1425    1.1195   -0.0004 
 C                    -1.166    -0.2237   -0.0006 
 C                    -0.026    -0.9408    0. 
 C                     1.1381   -0.2646    0.0009 
 C                     1.1631    1.0782    0.0011 
 C                     0.023     1.7918    0.0004 
 C                     0.0661    3.156     0.0007 
 O                    -0.9303    3.8475    0.0001 
 O                     1.2352    3.8438    0.0015 
 C                    -0.0274   -2.3097   -0.0002 
 O                    -1.076    -2.9261   -0.0009 
 O                     1.1567   -3.0091    0.0005 
 C                     1.11     -4.4166    0.0003 
 H                    -2.1125    1.6448   -0.001 
 H                    -2.1576   -0.7066   -0.0013 
 H                     2.1091   -0.788     0.0014 
 H                     2.1497    1.5717    0.0018 
 H                     1.0287    4.7922    0.0015 
 H                     2.1576   -4.7922    0.0007 
 H                     0.6011   -4.7849    0.9191 
 H                     0.6019   -4.7847   -0.9191 
 

 GradGradGradGradGradGradGradGradGradGradGradGradGradGradGradGradGradGrad
 Berny optimization.
 Initialization pass.
                           ----------------------------
                           !    Initial Parameters    !
                           ! (Angstroms and Degrees)  !
 --------------------------                            --------------------------
 ! Name  Definition              Value          Derivative Info.                !
 --------------------------------------------------------------------------------
 ! R1    R(1,2)                  1.3434         estimate D2E/DX2                !
 ! R2    R(1,6)                  1.3455         estimate D2E/DX2                !
 ! R3    R(1,14)                 1.1031         estimate D2E/DX2                !
 ! R4    R(2,3)                  1.3468         estimate D2E/DX2                !
 ! R5    R(2,15)                 1.1029         estimate D2E/DX2                !
 ! R6    R(3,4)                  1.3462         estimate D2E/DX2                !
 ! R7    R(3,10)                 1.3689         estimate D2E/DX2                !
 ! R8    R(4,5)                  1.343          estimate D2E/DX2                !
 ! R9    R(4,16)                 1.1031         estimate D2E/DX2                !
 ! R10   R(5,6)                  1.345          estimate D2E/DX2                !
 ! R11   R(5,17)                 1.1031         estimate D2E/DX2                !
 ! R12   R(6,7)                  1.3649         estimate D2E/DX2                !
 ! R13   R(7,8)                  1.2128         estimate D2E/DX2                !
 ! R14   R(7,9)                  1.3564         estimate D2E/DX2                !
 ! R15   R(9,18)                 0.9706         estimate D2E/DX2                !
 ! R16   R(10,11)                1.2164         estimate D2E/DX2                !
 ! R17   R(10,12)                1.3752         estimate D2E/DX2                !
 ! R18   R(12,13)                1.4083         estimate D2E/DX2                !
 ! R19   R(13,19)                1.1129         estimate D2E/DX2                !
 ! R20   R(13,20)                1.113          estimate D2E/DX2                !
 ! R21   R(13,21)                1.1131         estimate D2E/DX2                !
 ! A1    A(2,1,6)              120.9801         estimate D2E/DX2                !
 ! A2    A(2,1,14)             117.4353         estimate D2E/DX2                !
 ! A3    A(6,1,14)             121.5846         estimate D2E/DX2                !
 ! A4    A(1,2,3)              121.169          estimate D2E/DX2                !
 ! A5    A(1,2,15)             116.968          estimate D2E/DX2                !
 ! A6    A(3,2,15)             121.863          estimate D2E/DX2                !
 ! A7    A(2,3,4)              117.6773         estimate D2E/DX2                !
 ! A8    A(2,3,10)             122.1127         estimate D2E/DX2                !
 ! A9    A(4,3,10)             120.21           estimate D2E/DX2                !
 ! A10   A(3,4,5)              121.218          estimate D2E/DX2                !
 ! A11   A(3,4,16)             121.5226         estimate D2E/DX2                !
 ! A12   A(5,4,16)             117.2595         estimate D2E/DX2                !
 ! A13   A(4,5,6)              120.9763         estimate D2E/DX2                !
 ! A14   A(4,5,17)             117.6409         estimate D2E/DX2                !
 ! A15   A(6,5,17)             121.3828         estimate D2E/DX2                !
 ! A16   A(1,6,5)              117.9793         estimate D2E/DX2                !
 ! A17   A(1,6,7)              121.7874         estimate D2E/DX2                !
 ! A18   A(5,6,7)              120.2333         estimate D2E/DX2                !
 ! A19   A(6,7,8)              122.951          estimate D2E/DX2                !
 ! A20   A(6,7,9)              122.2786         estimate D2E/DX2                !
 ! A21   A(8,7,9)              114.7705         estimate D2E/DX2                !
 ! A22   A(7,9,18)             108.1854         estimate D2E/DX2                !
 ! A23   A(3,10,11)            120.5069         estimate D2E/DX2                !
 ! A24   A(3,10,12)            120.51           estimate D2E/DX2                !
 ! A25   A(11,10,12)           118.983          estimate D2E/DX2                !
 ! A26   A(10,12,13)           118.6683         estimate D2E/DX2                !
 ! A27   A(12,13,19)           107.8241         estimate D2E/DX2                !
 ! A28   A(12,13,20)           110.2284         estimate D2E/DX2                !
 ! A29   A(12,13,21)           110.2291         estimate D2E/DX2                !
 ! A30   A(19,13,20)           108.5675         estimate D2E/DX2                !
 ! A31   A(19,13,21)           108.5651         estimate D2E/DX2                !
 ! A32   A(20,13,21)           111.3285         estimate D2E/DX2                !
 ! D1    D(6,1,2,3)              0.0004         estimate D2E/DX2                !
 ! D2    D(6,1,2,15)          -179.9982         estimate D2E/DX2                !
 ! D3    D(14,1,2,3)           179.9955         estimate D2E/DX2                !
 ! D4    D(14,1,2,15)           -0.0031         estimate D2E/DX2                !
 ! D5    D(2,1,6,5)             -0.0052         estimate D2E/DX2                !
 ! D6    D(2,1,6,7)           -179.9958         estimate D2E/DX2                !
 ! D7    D(14,1,6,5)           180.0            estimate D2E/DX2                !
 ! D8    D(14,1,6,7)             0.0093         estimate D2E/DX2                !
 ! D9    D(1,2,3,4)              0.0045         estimate D2E/DX2                !
 ! D10   D(1,2,3,10)          -179.9995         estimate D2E/DX2                !
 ! D11   D(15,2,3,4)          -179.9971         estimate D2E/DX2                !
 ! D12   D(15,2,3,10)           -0.001          estimate D2E/DX2                !
 ! D13   D(2,3,4,5)             -0.0045         estimate D2E/DX2                !
 ! D14   D(2,3,4,16)          -179.9982         estimate D2E/DX2                !
 ! D15   D(10,3,4,5)           179.9994         estimate D2E/DX2                !
 ! D16   D(10,3,4,16)            0.0056         estimate D2E/DX2                !
 ! D17   D(2,3,10,11)           -0.0021         estimate D2E/DX2                !
 ! D18   D(2,3,10,12)         -179.9966         estimate D2E/DX2                !
 ! D19   D(4,3,10,11)          179.9939         estimate D2E/DX2                !
 ! D20   D(4,3,10,12)           -0.0007         estimate D2E/DX2                !
 ! D21   D(3,4,5,6)             -0.0003         estimate D2E/DX2                !
 ! D22   D(3,4,5,17)          -179.997          estimate D2E/DX2                !
 ! D23   D(16,4,5,6)           179.9937         estimate D2E/DX2                !
 ! D24   D(16,4,5,17)           -0.003          estimate D2E/DX2                !
 ! D25   D(4,5,6,1)              0.0051         estimate D2E/DX2                !
 ! D26   D(4,5,6,7)            179.9959         estimate D2E/DX2                !
 ! D27   D(17,5,6,1)          -179.9983         estimate D2E/DX2                !
 ! D28   D(17,5,6,7)            -0.0076         estimate D2E/DX2                !
 ! D29   D(1,6,7,8)             -0.0097         estimate D2E/DX2                !
 ! D30   D(1,6,7,9)           -179.9997         estimate D2E/DX2                !
 ! D31   D(5,6,7,8)            179.9999         estimate D2E/DX2                !
 ! D32   D(5,6,7,9)              0.0098         estimate D2E/DX2                !
 ! D33   D(6,7,9,18)           179.9953         estimate D2E/DX2                !
 ! D34   D(8,7,9,18)             0.0045         estimate D2E/DX2                !
 ! D35   D(3,10,12,13)         179.9983         estimate D2E/DX2                !
 ! D36   D(11,10,12,13)          0.0037         estimate D2E/DX2                !
 ! D37   D(10,12,13,19)        179.9866         estimate D2E/DX2                !
 ! D38   D(10,12,13,20)        -61.6578         estimate D2E/DX2                !
 ! D39   D(10,12,13,21)         61.6335         estimate D2E/DX2                !
 --------------------------------------------------------------------------------
 Trust Radius=3.00D-01 FncErr=1.00D-07 GrdErr=1.00D-06 EigMax=2.50D+02 EigMin=1.00D-04
 Number of steps in this run=    102 maximum allowed number of steps=    126.
 GradGradGradGradGradGradGradGradGradGradGradGradGradGradGradGradGradGrad

                          Input orientation:                          
 ---------------------------------------------------------------------
 Center     Atomic      Atomic             Coordinates (Angstroms)
 Number     Number       Type             X           Y           Z
 ---------------------------------------------------------------------
      1          6           0       -1.142500    1.119500   -0.000400
      2          6           0       -1.166000   -0.223700   -0.000600
      3          6           0       -0.026000   -0.940800    0.000000
      4          6           0        1.138100   -0.264600    0.000900
      5          6           0        1.163100    1.078200    0.001100
      6          6           0        0.023000    1.791800    0.000400
      7          6           0        0.066100    3.156000    0.000700
      8          8           0       -0.930300    3.847500    0.000100
      9          8           0        1.235200    3.843800    0.001500
     10          6           0       -0.027400   -2.309700   -0.000200
     11          8           0       -1.076000   -2.926100   -0.000900
     12          8           0        1.156700   -3.009100    0.000500
     13          6           0        1.110000   -4.416600    0.000300
     14          1           0       -2.112500    1.644800   -0.001000
     15          1           0       -2.157600   -0.706600   -0.001300
     16          1           0        2.109100   -0.788000    0.001400
     17          1           0        2.149700    1.571700    0.001800
     18          1           0        1.028700    4.792200    0.001500
     19          1           0        2.157600   -4.792200    0.000700
     20          1           0        0.601100   -4.784900    0.919100
     21          1           0        0.601900   -4.784700   -0.919100
 ---------------------------------------------------------------------
                    Distance matrix (angstroms):
                    1          2          3          4          5
     1  C    0.000000
     2  C    1.343406   0.000000
     3  C    2.343375   1.346786   0.000000
     4  C    2.667746   2.304463   1.346245   0.000000
     5  C    2.305970   2.668268   2.343143   1.343033   0.000000
     6  C    1.345503   2.340077   2.733039   2.339280   1.345011
     7  C    2.368132   3.597283   4.097835   3.584646   2.349609
     8  O    2.736241   4.078017   4.872943   4.603004   3.471505
     9  O    3.615974   4.723380   4.948032   4.109547   2.766540
    10  C    3.605948   2.376511   1.368901   2.353896   3.590983
    11  O    4.046147   2.703898   2.245867   3.462055   4.587809
    12  O    4.725639   3.626760   2.382571   2.744563   4.087305
    13  C    5.976802   4.770806   3.656731   4.152095   5.495057
    14  H    1.103105   2.094554   3.322471   3.769909   3.324244
    15  H    2.089275   1.102934   2.144428   3.325208   3.769956
    16  H    3.769809   3.323360   2.140561   1.103082   2.092276
    17  H    3.323112   3.770588   3.323602   2.096505   1.103142
    18  H    4.266478   5.475031   5.829209   5.057983   3.716431
    19  H    6.770440   5.649558   4.427346   4.640963   5.954043
    20  H    6.224754   4.977252   4.001888   4.643767   5.961083
    21  H    6.224670   4.977131   4.001821   4.643836   5.961150
                    6          7          8          9         10
     6  C    0.000000
     7  C    1.364881   0.000000
     8  O    2.265984   1.212842   0.000000
     9  O    2.383303   1.356416   2.165504   0.000000
    10  C    4.101810   5.466500   6.223049   6.281698   0.000000
    11  O    4.844211   6.188403   6.775167   7.153544   1.216352
    12  O    4.932942   6.260820   7.167184   6.853350   1.375229
    13  C    6.302841   7.644213   8.512237   8.261349   2.394307
    14  H    2.140554   2.651420   2.499897   4.005334   4.470538
    15  H    3.316176   4.456964   4.716577   5.676023   2.666024
    16  H    3.317707   4.441732   5.543087   4.713520   2.623015
    17  H    2.138060   2.617517   3.829578   2.449234   4.450285
    18  H    3.164464   1.898355   2.174889   0.970621   7.179995
    19  H    6.921385   8.218775   9.174941   8.685121   3.307118
    20  H    6.665673   8.011715   8.815218   8.700491   2.714174
    21  H    6.665655   8.011731   8.815182   8.700551   2.714041
                   11         12         13         14         15
    11  O    0.000000
    12  O    2.234243   0.000000
    13  C    2.645787   1.408275   0.000000
    14  H    4.686946   5.687394   6.864771   0.000000
    15  H    2.469016   4.035603   4.943816   2.351832   0.000000
    16  H    3.836188   2.416682   3.763634   4.872415   4.267477
    17  H    5.534921   4.687193   6.077887   4.262828   4.872730
    18  H    8.000120   7.802350   9.209159   4.446715   6.355259
    19  H    3.733430   2.044810   1.112898   7.724553   5.942481
    20  H    2.667246   2.075086   1.113022   7.039265   5.009001
    21  H    2.666990   2.075144   1.113086   7.039130   5.008802
                   16         17         18         19         20
    16  H    0.000000
    17  H    2.360049   0.000000
    18  H    5.683828   3.410024   0.000000
    19  H    4.004494   6.363905   9.650655   0.000000
    20  H    4.369376   6.606509   9.630456   1.807264   0.000000
    21  H    4.369506   6.606630   9.630508   1.807288   1.838200
                   21
    21  H    0.000000
 Stoichiometry    C9H8O4
 Framework group  C1[X(C9H8O4)]
 Deg. of freedom    57
 Full point group                 C1      NOp   1
 Largest Abelian subgroup         C1      NOp   1
 Largest concise Abelian subgroup C1      NOp   1
                         Standard orientation:                         
 ---------------------------------------------------------------------
 Center     Atomic      Atomic             Coordinates (Angstroms)
 Number     Number       Type             X           Y           Z
 ---------------------------------------------------------------------
      1          6           0        1.183730    1.234732    0.000008
      2          6           0       -0.156435    1.327975    0.000009
      3          6           0       -0.931786    0.226764   -0.000030
      4          6           0       -0.316969   -0.970890    0.000023
      5          6           0        1.022719   -1.065610    0.000021
      6          6           0        1.794579    0.035882   -0.000040
      7          6           0        3.154699   -0.078025    0.000043
      8          8           0        3.897024    0.881109   -0.000008
      9          8           0        3.780840   -1.281275   -0.000009
     10          6           0       -2.298765    0.299272   -0.000039
     11          8           0       -2.859862    1.378476    0.000025
     12          8           0       -3.058730   -0.846899   -0.000009
     13          6           0       -4.461904   -0.727148    0.000016
     14          1           0        1.758709    2.176136   -0.000037
     15          1           0       -0.587174    2.343321    0.000018
     16          1           0       -0.890102   -1.913391   -0.000033
     17          1           0        1.464303   -2.076514    0.000014
     18          1           0        4.738686   -1.124320   -0.000007
     19          1           0       -4.891416   -1.753822   -0.000210
     20          1           0       -4.803175   -0.200404    0.919197
     21          1           0       -4.803209   -0.200011   -0.919004
 ---------------------------------------------------------------------
 Rotational constants (GHZ):           2.8474342           0.3730429           0.3305663
 Standard basis: Aug-CC-pVTZ (5D, 7F)
 There are   915 symmetry adapted cartesian basis functions of A   symmetry.
 There are   782 symmetry adapted basis functions of A   symmetry.
   782 basis functions,  1152 primitive gaussians,   915 cartesian basis functions
    47 alpha electrons       47 beta electrons
       nuclear repulsion energy       756.9085058033 Hartrees.
 NAtoms=   21 NActive=   21 NUniq=   21 SFac= 1.00D+00 NAtFMM=   60 NAOKFM=F Big=F
 Integral buffers will be    131072 words long.
 Raffenetti 2 integral format.
 Two-electron integral symmetry is turned on.
 One-electron integrals computed using PRISM.
 NBasis=   782 RedAO= T EigKep=  1.06D-06  NBF=   782
 NBsUse=   778 1.00D-06 EigRej=  6.04D-07 NBFU=   778
 ExpMin= 2.53D-02 ExpMax= 1.53D+04 ExpMxC= 5.22D+02 IAcc=3 IRadAn=         5 AccDes= 0.00D+00
 Harris functional with IExCor= 1009 and IRadAn=       5 diagonalized for initial guess.
 HarFok:  IExCor= 1009 AccDes= 0.00D+00 IRadAn=         5 IDoV= 1 UseB2=F ITyADJ=14
 ICtDFT=  3500011 ScaDFX=  1.000000  1.000000  1.000000  1.000000
 FoFCou: FMM=F IPFlag=           0 FMFlag=      100000 FMFlg1=           0
         NFxFlg=           0 DoJE=T BraDBF=F KetDBF=T FulRan=T
         wScrn=  0.000000 ICntrl=       500 IOpCl=  0 I1Cent=   200000004 NGrid=           0
         NMat0=    1 NMatS0=      1 NMatT0=    0 NMatD0=    1 NMtDS0=    0 NMtDT0=    0
 Petite list used in FoFCou.
 Requested convergence on RMS density matrix=1.00D-08 within 128 cycles.
 Requested convergence on MAX density matrix=1.00D-06.
 Requested convergence on             energy=1.00D-06.
 No special actions if energy rises.
 SCF Done:  E(RM062X) =  -648.656990067     A.U. after   14 cycles
            NFock= 14  Conv=0.42D-08     -V/T= 2.0035

 **********************************************************************

            Population analysis using the SCF Density.

 **********************************************************************

 Orbital symmetries:
       Occupied  (A) (A) (A) (A) (A) (A) (A) (A) (A) (A) (A) (A)
                 (A) (A) (A) (A) (A) (A) (A) (A) (A) (A) (A) (A)
                 (A) (A) (A) (A) (A) (A) (A) (A) (A) (A) (A) (A)
                 (A) (A) (A) (A) (A) (A) (A) (A) (A) (A) (A)
       Virtual   (A) (A) (A) (A) (A) (A) (A) (A) (A) (A) (A) (A)
                 (A) (A) (A) (A) (A) (A) (A) (A) (A) (A) (A) (A)
                 (A) (A) (A) (A) (A) (A) (A) (A) (A) (A) (A) (A)
                 (A) (A) (A) (A) (A) (A) (A) (A) (A) (A) (A) (A)
                 (A) (A) (A) (A) (A) (A) (A) (A) (A) (A) (A) (A)
                 (A) (A) (A) (A) (A) (A) (A) (A) (A) (A) (A) (A)
                 (A) (A) (A) (A) (A) (A) (A) (A) (A) (A) (A) (A)
                 (A) (A) (A) (A) (A) (A) (A) (A) (A) (A) (A) (A)
                 (A) (A) (A) (A) (A) (A) (A) (A) (A) (A) (A) (A)
                 (A) (A) (A) (A) (A) (A) (A) (A) (A) (A) (A) (A)
                 (A) (A) (A) (A) (A) (A) (A) (A) (A) (A) (A) (A)
                 (A) (A) (A) (A) (A) (A) (A) (A) (A) (A) (A) (A)
                 (A) (A) (A) (A) (A) (A) (A) (A) (A) (A) (A) (A)
                 (A) (A) (A) (A) (A) (A) (A) (A) (A) (A) (A) (A)
                 (A) (A) (A) (A) (A) (A) (A) (A) (A) (A) (A) (A)
                 (A) (A) (A) (A) (A) (A) (A) (A) (A) (A) (A) (A)
                 (A) (A) (A) (A) (A) (A) (A) (A) (A) (A) (A) (A)
                 (A) (A) (A) (A) (A) (A) (A) (A) (A) (A) (A) (A)
                 (A) (A) (A) (A) (A) (A) (A) (A) (A) (A) (A) (A)
                 (A) (A) (A) (A) (A) (A) (A) (A) (A) (A) (A) (A)
                 (A) (A) (A) (A) (A) (A) (A) (A) (A) (A) (A) (A)
                 (A) (A) (A) (A) (A) (A) (A) (A) (A) (A) (A) (A)
                 (A) (A) (A) (A) (A) (A) (A) (A) (A) (A) (A) (A)
                 (A) (A) (A) (A) (A) (A) (A) (A) (A) (A) (A) (A)
                 (A) (A) (A) (A) (A) (A) (A) (A) (A) (A) (A) (A)
                 (A) (A) (A) (A) (A) (A) (A) (A) (A) (A) (A) (A)
                 (A) (A) (A) (A) (A) (A) (A) (A) (A) (A) (A) (A)
                 (A) (A) (A) (A) (A) (A) (A) (A) (A) (A) (A) (A)
                 (A) (A) (A) (A) (A) (A) (A) (A) (A) (A) (A) (A)
                 (A) (A) (A) (A) (A) (A) (A) (A) (A) (A) (A) (A)
                 (A) (A) (A) (A) (A) (A) (A) (A) (A) (A) (A) (A)
                 (A) (A) (A) (A) (A) (A) (A) (A) (A) (A) (A) (A)
                 (A) (A) (A) (A) (A) (A) (A) (A) (A) (A) (A) (A)
                 (A) (A) (A) (A) (A) (A) (A) (A) (A) (A) (A) (A)
                 (A) (A) (A) (A) (A) (A) (A) (A) (A) (A) (A) (A)
                 (A) (A) (A) (A) (A) (A) (A) (A) (A) (A) (A) (A)
                 (A) (A) (A) (A) (A) (A) (A) (A) (A) (A) (A) (A)
                 (A) (A) (A) (A) (A) (A) (A) (A) (A) (A) (A) (A)
                 (A) (A) (A) (A) (A) (A) (A) (A) (A) (A) (A) (A)
                 (A) (A) (A) (A) (A) (A) (A) (A) (A) (A) (A) (A)
                 (A) (A) (A) (A) (A) (A) (A) (A) (A) (A) (A) (A)
                 (A) (A) (A) (A) (A) (A) (A) (A) (A) (A) (A) (A)
                 (A) (A) (A) (A) (A) (A) (A) (A) (A) (A) (A) (A)
                 (A) (A) (A) (A) (A) (A) (A) (A) (A) (A) (A) (A)
                 (A) (A) (A) (A) (A) (A) (A) (A) (A) (A) (A) (A)
                 (A) (A) (A) (A) (A) (A) (A) (A) (A) (A) (A) (A)
                 (A) (A) (A) (A) (A) (A) (A) (A) (A) (A) (A) (A)
                 (A) (A) (A) (A) (A) (A) (A) (A) (A) (A) (A) (A)
                 (A) (A) (A) (A) (A) (A) (A) (A) (A) (A) (A) (A)
                 (A) (A) (A) (A) (A) (A) (A) (A) (A) (A) (A) (A)
                 (A) (A) (A) (A) (A) (A) (A) (A) (A) (A) (A) (A)
                 (A) (A) (A) (A) (A) (A) (A) (A) (A) (A) (A) (A)
                 (A) (A) (A) (A) (A) (A) (A) (A) (A) (A) (A) (A)
                 (A) (A) (A) (A) (A) (A) (A) (A) (A) (A) (A) (A)
                 (A) (A) (A) (A) (A) (A) (A) (A) (A) (A) (A) (A)
                 (A) (A) (A) (A) (A) (A) (A) (A) (A) (A) (A) (A)
                 (A) (A) (A) (A) (A) (A) (A) (A) (A) (A) (A) (A)
                 (A) (A) (A) (A) (A) (A) (A) (A) (A) (A) (A) (A)
                 (A) (A) (A) (A) (A) (A) (A) (A) (A) (A) (A) (A)
                 (A) (A) (A) (A) (A) (A) (A) (A) (A) (A) (A) (A)
                 (A) (A) (A) (A) (A) (A) (A) (A) (A) (A) (A)
 The electronic state is 1-A.
 Alpha  occ. eigenvalues --  -19.67827 -19.67512 -19.62056 -19.61694 -10.68067
 Alpha  occ. eigenvalues --  -10.68044 -10.60409 -10.56777 -10.56746 -10.56407
 Alpha  occ. eigenvalues --  -10.56332 -10.56250 -10.56210  -1.24760  -1.24130
 Alpha  occ. eigenvalues --   -1.14786  -1.13847  -1.03111  -0.93957  -0.88739
 Alpha  occ. eigenvalues --   -0.84462  -0.79547  -0.73115  -0.70577  -0.67262
 Alpha  occ. eigenvalues --   -0.64936  -0.61972  -0.59200  -0.57959  -0.57520
 Alpha  occ. eigenvalues --   -0.55693  -0.54683  -0.52982  -0.52063  -0.51072
 Alpha  occ. eigenvalues --   -0.50427  -0.49522  -0.46188  -0.45999  -0.43624
 Alpha  occ. eigenvalues --   -0.41704  -0.40503  -0.38320  -0.36827  -0.36490
 Alpha  occ. eigenvalues --   -0.34783  -0.34457
 Alpha virt. eigenvalues --   -0.06806  -0.01034  -0.00245   0.00371   0.00704
 Alpha virt. eigenvalues --    0.00974   0.01695   0.02260   0.02961   0.03042
 Alpha virt. eigenvalues --    0.03362   0.03881   0.04282   0.05633   0.05696
 Alpha virt. eigenvalues --    0.05712   0.06561   0.07395   0.07734   0.07922
 Alpha virt. eigenvalues --    0.08197   0.08552   0.08726   0.09030   0.09320
 Alpha virt. eigenvalues --    0.09660   0.10188   0.10754   0.10923   0.11348
 Alpha virt. eigenvalues --    0.11660   0.12185   0.12276   0.12697   0.13272
 Alpha virt. eigenvalues --    0.13410   0.14222   0.14253   0.14813   0.15304
 Alpha virt. eigenvalues --    0.15776   0.16501   0.16820   0.17310   0.17402
 Alpha virt. eigenvalues --    0.18539   0.19419   0.19686   0.20221   0.20299
 Alpha virt. eigenvalues --    0.20585   0.20876   0.20929   0.21382   0.21821
 Alpha virt. eigenvalues --    0.22451   0.22948   0.23542   0.23604   0.23917
 Alpha virt. eigenvalues --    0.24002   0.24418   0.24853   0.24968   0.25406
 Alpha virt. eigenvalues --    0.25837   0.26327   0.26754   0.27411   0.27658
 Alpha virt. eigenvalues --    0.27939   0.28009   0.28918   0.29770   0.30036
 Alpha virt. eigenvalues --    0.30272   0.30701   0.31026   0.31134   0.31587
 Alpha virt. eigenvalues --    0.31892   0.32191   0.32335   0.33184   0.33707
 Alpha virt. eigenvalues --    0.33844   0.34150   0.34286   0.35135   0.35139
 Alpha virt. eigenvalues --    0.35920   0.35976   0.36315   0.36550   0.36739
 Alpha virt. eigenvalues --    0.37063   0.37816   0.37952   0.38199   0.38517
 Alpha virt. eigenvalues --    0.38857   0.39048   0.39922   0.40128   0.40454
 Alpha virt. eigenvalues --    0.40938   0.41234   0.41757   0.42233   0.42998
 Alpha virt. eigenvalues --    0.43705   0.43831   0.44431   0.44856   0.45332
 Alpha virt. eigenvalues --    0.45766   0.47112   0.47523   0.47743   0.47760
 Alpha virt. eigenvalues --    0.48247   0.48650   0.49012   0.49304   0.50321
 Alpha virt. eigenvalues --    0.51549   0.51577   0.52133   0.53137   0.53546
 Alpha virt. eigenvalues --    0.54257   0.54522   0.54865   0.55644   0.55799
 Alpha virt. eigenvalues --    0.55918   0.57240   0.58405   0.58860   0.59340
 Alpha virt. eigenvalues --    0.59516   0.60124   0.62498   0.62834   0.62874
 Alpha virt. eigenvalues --    0.63480   0.64373   0.64917   0.65055   0.65200
 Alpha virt. eigenvalues --    0.65724   0.66032   0.67336   0.67339   0.69065
 Alpha virt. eigenvalues --    0.69070   0.69958   0.70169   0.70204   0.71862
 Alpha virt. eigenvalues --    0.72229   0.72671   0.72940   0.73168   0.74279
 Alpha virt. eigenvalues --    0.74634   0.74873   0.75100   0.75211   0.75602
 Alpha virt. eigenvalues --    0.75945   0.76511   0.76529   0.77844   0.77943
 Alpha virt. eigenvalues --    0.78356   0.78465   0.78717   0.78858   0.79923
 Alpha virt. eigenvalues --    0.80553   0.81318   0.81509   0.82009   0.82338
 Alpha virt. eigenvalues --    0.82752   0.83275   0.83820   0.84148   0.84727
 Alpha virt. eigenvalues --    0.84934   0.85736   0.86570   0.86827   0.87047
 Alpha virt. eigenvalues --    0.87310   0.87547   0.87748   0.88817   0.89350
 Alpha virt. eigenvalues --    0.90111   0.90413   0.90644   0.91183   0.91673
 Alpha virt. eigenvalues --    0.92375   0.92395   0.92987   0.93291   0.94058
 Alpha virt. eigenvalues --    0.94404   0.94961   0.95236   0.95605   0.97275
 Alpha virt. eigenvalues --    0.97439   0.97822   0.98353   0.99488   0.99508
 Alpha virt. eigenvalues --    0.99836   1.00093   1.00575   1.01426   1.01865
 Alpha virt. eigenvalues --    1.02399   1.02467   1.03166   1.03405   1.04136
 Alpha virt. eigenvalues --    1.04732   1.05413   1.06357   1.06659   1.07229
 Alpha virt. eigenvalues --    1.07764   1.08522   1.08563   1.09537   1.10669
 Alpha virt. eigenvalues --    1.10882   1.11262   1.11626   1.12464   1.12822
 Alpha virt. eigenvalues --    1.13504   1.14145   1.14707   1.15084   1.15485
 Alpha virt. eigenvalues --    1.17162   1.18026   1.18183   1.18783   1.19087
 Alpha virt. eigenvalues --    1.20575   1.21070   1.21751   1.23562   1.23658
 Alpha virt. eigenvalues --    1.24825   1.25080   1.26033   1.26880   1.28239
 Alpha virt. eigenvalues --    1.28431   1.28675   1.29143   1.30503   1.30893
 Alpha virt. eigenvalues --    1.31999   1.32864   1.33632   1.33974   1.34799
 Alpha virt. eigenvalues --    1.36353   1.36481   1.37325   1.37845   1.38856
 Alpha virt. eigenvalues --    1.39750   1.39760   1.41527   1.41802   1.42159
 Alpha virt. eigenvalues --    1.42217   1.43192   1.43751   1.44345   1.45118
 Alpha virt. eigenvalues --    1.46636   1.46643   1.47897   1.49320   1.49641
 Alpha virt. eigenvalues --    1.50080   1.50358   1.51858   1.52137   1.52748
 Alpha virt. eigenvalues --    1.52921   1.53570   1.54096   1.54932   1.55738
 Alpha virt. eigenvalues --    1.57370   1.57809   1.58610   1.59206   1.59491
 Alpha virt. eigenvalues --    1.60526   1.61888   1.62033   1.63575   1.63733
 Alpha virt. eigenvalues --    1.64299   1.64511   1.66787   1.66995   1.68443
 Alpha virt. eigenvalues --    1.68486   1.68954   1.69972   1.70459   1.70468
 Alpha virt. eigenvalues --    1.70998   1.72765   1.72783   1.74639   1.75149
 Alpha virt. eigenvalues --    1.76201   1.77272   1.78029   1.78332   1.79192
 Alpha virt. eigenvalues --    1.80055   1.80057   1.81878   1.82963   1.82987
 Alpha virt. eigenvalues --    1.84513   1.84745   1.85827   1.86413   1.86808
 Alpha virt. eigenvalues --    1.87407   1.87582   1.90180   1.90320   1.91327
 Alpha virt. eigenvalues --    1.92559   1.93108   1.93126   1.94176   1.95001
 Alpha virt. eigenvalues --    1.95265   1.98426   1.99318   1.99733   2.01359
 Alpha virt. eigenvalues --    2.01816   2.01990   2.02236   2.03336   2.04217
 Alpha virt. eigenvalues --    2.05868   2.07196   2.07207   2.07832   2.09209
 Alpha virt. eigenvalues --    2.12163   2.12382   2.14398   2.15117   2.15704
 Alpha virt. eigenvalues --    2.17100   2.18762   2.19566   2.20859   2.21453
 Alpha virt. eigenvalues --    2.22538   2.22647   2.24444   2.26274   2.27424
 Alpha virt. eigenvalues --    2.28468   2.28793   2.30022   2.31735   2.32738
 Alpha virt. eigenvalues --    2.32743   2.33512   2.36318   2.36458   2.37733
 Alpha virt. eigenvalues --    2.39222   2.40328   2.41072   2.42051   2.43274
 Alpha virt. eigenvalues --    2.43582   2.45179   2.45579   2.45888   2.46945
 Alpha virt. eigenvalues --    2.47473   2.47818   2.49072   2.51535   2.52435
 Alpha virt. eigenvalues --    2.53626   2.54254   2.55205   2.55836   2.57950
 Alpha virt. eigenvalues --    2.59904   2.61824   2.62548   2.64070   2.64130
 Alpha virt. eigenvalues --    2.66521   2.66782   2.67428   2.68349   2.72600
 Alpha virt. eigenvalues --    2.73942   2.74767   2.75698   2.76322   2.76912
 Alpha virt. eigenvalues --    2.77660   2.79202   2.81343   2.82157   2.83500
 Alpha virt. eigenvalues --    2.85118   2.87556   2.90458   2.90633   2.92071
 Alpha virt. eigenvalues --    2.93483   2.95153   2.95982   2.98606   2.99111
 Alpha virt. eigenvalues --    3.00432   3.01270   3.03229   3.03499   3.03635
 Alpha virt. eigenvalues --    3.06040   3.07466   3.08161   3.09465   3.10436
 Alpha virt. eigenvalues --    3.11999   3.13011   3.13478   3.14397   3.15134
 Alpha virt. eigenvalues --    3.15192   3.16605   3.17365   3.18563   3.18975
 Alpha virt. eigenvalues --    3.20749   3.21978   3.22358   3.22764   3.23128
 Alpha virt. eigenvalues --    3.25013   3.25690   3.26054   3.27167   3.28146
 Alpha virt. eigenvalues --    3.30138   3.30370   3.30924   3.34119   3.34551
 Alpha virt. eigenvalues --    3.35088   3.35901   3.38773   3.39173   3.39997
 Alpha virt. eigenvalues --    3.41871   3.42680   3.45112   3.46061   3.46659
 Alpha virt. eigenvalues --    3.48333   3.48680   3.48997   3.50034   3.50863
 Alpha virt. eigenvalues --    3.51512   3.52865   3.53731   3.54842   3.56771
 Alpha virt. eigenvalues --    3.57293   3.58129   3.58673   3.58969   3.59277
 Alpha virt. eigenvalues --    3.60428   3.60556   3.61844   3.62020   3.63667
 Alpha virt. eigenvalues --    3.63718   3.66281   3.67930   3.69226   3.70042
 Alpha virt. eigenvalues --    3.70139   3.70706   3.71273   3.73346   3.74045
 Alpha virt. eigenvalues --    3.76560   3.77082   3.78797   3.79243   3.79898
 Alpha virt. eigenvalues --    3.81015   3.81868   3.82197   3.82920   3.84298
 Alpha virt. eigenvalues --    3.84371   3.85198   3.85332   3.88140   3.90654
 Alpha virt. eigenvalues --    3.90687   3.91957   3.92836   3.92954   3.94462
 Alpha virt. eigenvalues --    3.96055   3.96396   3.97573   3.98092   3.98464
 Alpha virt. eigenvalues --    3.98938   3.99036   3.99767   4.01475   4.03028
 Alpha virt. eigenvalues --    4.04250   4.05580   4.06441   4.08670   4.09303
 Alpha virt. eigenvalues --    4.11116   4.12236   4.12687   4.14687   4.14943
 Alpha virt. eigenvalues --    4.16182   4.19195   4.20317   4.20566   4.21253
 Alpha virt. eigenvalues --    4.22267   4.23029   4.24042   4.24626   4.26121
 Alpha virt. eigenvalues --    4.27240   4.28455   4.30961   4.31704   4.34780
 Alpha virt. eigenvalues --    4.35172   4.35986   4.39156   4.41065   4.41290
 Alpha virt. eigenvalues --    4.42432   4.42605   4.43696   4.45182   4.45431
 Alpha virt. eigenvalues --    4.47067   4.49627   4.49950   4.52536   4.54423
 Alpha virt. eigenvalues --    4.55708   4.58698   4.60306   4.61501   4.61863
 Alpha virt. eigenvalues --    4.62014   4.63049   4.64788   4.65046   4.67610
 Alpha virt. eigenvalues --    4.67979   4.71349   4.71960   4.72899   4.73415
 Alpha virt. eigenvalues --    4.74953   4.75843   4.78159   4.78505   4.80333
 Alpha virt. eigenvalues --    4.81479   4.81872   4.83441   4.88700   4.88735
 Alpha virt. eigenvalues --    4.90709   4.92006   4.93138   4.93630   4.95579
 Alpha virt. eigenvalues --    4.97196   4.99079   5.02413   5.03865   5.04229
 Alpha virt. eigenvalues --    5.05920   5.08625   5.10288   5.13365   5.13542
 Alpha virt. eigenvalues --    5.15644   5.16559   5.20447   5.21734   5.23608
 Alpha virt. eigenvalues --    5.25100   5.27874   5.29304   5.37404   5.40635
 Alpha virt. eigenvalues --    5.41616   5.43010   5.51658   5.52696   5.53781
 Alpha virt. eigenvalues --    5.55176   5.57719   5.62533   5.65527   5.75946
 Alpha virt. eigenvalues --    5.79103   5.82601   5.88509   5.92752   5.94326
 Alpha virt. eigenvalues --    5.97420   6.04126   6.09208   6.09866   6.15191
 Alpha virt. eigenvalues --    6.19396   6.20674   6.23307   6.24622   6.27783
 Alpha virt. eigenvalues --    6.29356   6.30760   6.36046   6.36669   6.39729
 Alpha virt. eigenvalues --    6.42398   6.44592   6.45941   6.47644   6.50606
 Alpha virt. eigenvalues --    6.53636   6.55082   6.55391   6.58514   6.60487
 Alpha virt. eigenvalues --    6.62765   6.66912   6.69643   6.71036   6.74672
 Alpha virt. eigenvalues --    6.75206   6.75940   6.79414   6.80605   6.82081
 Alpha virt. eigenvalues --    6.86145   6.87069   6.87305   6.89595   6.91142
 Alpha virt. eigenvalues --    6.97488   6.98889   7.01604   7.08026   7.08545
 Alpha virt. eigenvalues --    7.13414   7.13963   7.15888   7.17682   7.20052
 Alpha virt. eigenvalues --    7.30837   7.32837   7.34405   7.38872   7.41137
 Alpha virt. eigenvalues --    7.50452   7.53555   7.56532   7.71026   7.87660
 Alpha virt. eigenvalues --    7.89731   8.00998   8.04718  14.86153  15.38595
 Alpha virt. eigenvalues --   15.64607  16.49335  16.96878  17.62945  18.15513
 Alpha virt. eigenvalues --   18.50792  18.65109  20.26900  20.28470  20.53237
 Alpha virt. eigenvalues --   21.41888
          Condensed to atoms (all electrons):
               1          2          3          4          5          6
     1  C    8.181177  -0.443055   0.141256  -0.378579   0.058984  -0.479258
     2  C   -0.443055   8.554199  -0.670848  -0.065764  -0.278319   0.085585
     3  C    0.141256  -0.670848   7.150909  -0.255532  -0.050665  -0.190842
     4  C   -0.378579  -0.065764  -0.255532   8.070318  -0.467409   0.031721
     5  C    0.058984  -0.278319  -0.050665  -0.467409   8.488048  -0.389753
     6  C   -0.479258   0.085585  -0.190842   0.031721  -0.389753   6.755455
     7  C   -0.436936  -0.004667  -0.067936   0.142987  -0.690012  -0.827190
     8  O    0.058681  -0.006329  -0.023164  -0.029535   0.091393  -0.265731
     9  O    0.029949   0.009521  -0.023026  -0.007291  -0.028762  -0.056812
    10  C    0.045285  -0.525667  -1.002016  -0.664081   0.135135  -0.075421
    11  O   -0.061437   0.123340  -0.403618   0.092514  -0.023658  -0.006014
    12  O   -0.013638   0.090566  -0.182858  -0.039833   0.045859  -0.015517
    13  C   -0.003780  -0.012356   0.068410  -0.031643   0.008949   0.002573
    14  H    0.586446  -0.644073   0.027121   0.028514   0.008932  -0.396758
    15  H   -0.747713   0.569052  -0.483657  -0.001921   0.025786   0.038628
    16  H    0.001262   0.034670  -0.466102   0.528352  -0.865477   0.056230
    17  H    0.059799   0.038747   0.006241  -0.677263   0.569752  -0.429517
    18  H   -0.029212  -0.000514   0.002985   0.002310  -0.006163   0.029931
    19  H   -0.000913   0.004589   0.006551  -0.007613   0.001745  -0.000202
    20  H    0.000868  -0.005078   0.015604  -0.004659   0.001204   0.000048
    21  H    0.000869  -0.005083   0.015615  -0.004659   0.001207   0.000047
               7          8          9         10         11         12
     1  C   -0.436936   0.058681   0.029949   0.045285  -0.061437  -0.013638
     2  C   -0.004667  -0.006329   0.009521  -0.525667   0.123340   0.090566
     3  C   -0.067936  -0.023164  -0.023026  -1.002016  -0.403618  -0.182858
     4  C    0.142987  -0.029535  -0.007291  -0.664081   0.092514  -0.039833
     5  C   -0.690012   0.091393  -0.028762   0.135135  -0.023658   0.045859
     6  C   -0.827190  -0.265731  -0.056812  -0.075421  -0.006014  -0.015517
     7  C    7.461015  -0.033123   0.038787  -0.042111   0.001596  -0.000069
     8  O   -0.033123   9.321037  -0.125640   0.007334  -0.000113   0.000049
     9  O    0.038787  -0.125640   8.601743   0.005471  -0.000094   0.000547
    10  C   -0.042111   0.007334   0.005471   7.663717   0.005623   0.164944
    11  O    0.001596  -0.000113  -0.000094   0.005623   9.378966  -0.129190
    12  O   -0.000069   0.000049   0.000547   0.164944  -0.129190   8.419030
    13  C   -0.001024   0.000150   0.000240  -0.144341  -0.056485   0.052826
    14  H    0.294857   0.025173   0.001623  -0.021780  -0.011805  -0.002476
    15  H   -0.040678  -0.008159  -0.000674   0.307038   0.063196   0.007534
    16  H   -0.050121  -0.000550  -0.005988   0.287171   0.007203  -0.078160
    17  H    0.230115   0.008477  -0.025371  -0.055719  -0.000142   0.001832
    18  H    0.073678  -0.109464   0.154744  -0.001263   0.000041  -0.000014
    19  H   -0.000006   0.000006   0.000027  -0.026118   0.016333   0.002393
    20  H   -0.000095   0.000017   0.000015  -0.016851  -0.004058  -0.013919
    21  H   -0.000095   0.000017   0.000015  -0.016863  -0.004067  -0.013917
              13         14         15         16         17         18
     1  C   -0.003780   0.586446  -0.747713   0.001262   0.059799  -0.029212
     2  C   -0.012356  -0.644073   0.569052   0.034670   0.038747  -0.000514
     3  C    0.068410   0.027121  -0.483657  -0.466102   0.006241   0.002985
     4  C   -0.031643   0.028514  -0.001921   0.528352  -0.677263   0.002310
     5  C    0.008949   0.008932   0.025786  -0.865477   0.569752  -0.006163
     6  C    0.002573  -0.396758   0.038628   0.056230  -0.429517   0.029931
     7  C   -0.001024   0.294857  -0.040678  -0.050121   0.230115   0.073678
     8  O    0.000150   0.025173  -0.008159  -0.000550   0.008477  -0.109464
     9  O    0.000240   0.001623  -0.000674  -0.005988  -0.025371   0.154744
    10  C   -0.144341  -0.021780   0.307038   0.287171  -0.055719  -0.001263
    11  O   -0.056485  -0.011805   0.063196   0.007203  -0.000142   0.000041
    12  O    0.052826  -0.002476   0.007534  -0.078160   0.001832  -0.000014
    13  C    5.983619   0.000001   0.002743  -0.011092   0.001736  -0.000029
    14  H    0.000001   1.273744  -0.251498  -0.011003   0.013989  -0.002751
    15  H    0.002743  -0.251498   1.449868   0.021597  -0.009286   0.000290
    16  H   -0.011092  -0.011003   0.021597   1.712582  -0.250149   0.000386
    17  H    0.001736   0.013989  -0.009286  -0.250149   1.459365  -0.003436
    18  H   -0.000029  -0.002751   0.000290   0.000386  -0.003436   0.594463
    19  H    0.382502  -0.000058   0.000917  -0.000533   0.000036  -0.000003
    20  H    0.354153   0.000172  -0.001467  -0.002204   0.000013  -0.000003
    21  H    0.354158   0.000172  -0.001469  -0.002206   0.000014  -0.000003
              19         20         21
     1  C   -0.000913   0.000868   0.000869
     2  C    0.004589  -0.005078  -0.005083
     3  C    0.006551   0.015604   0.015615
     4  C   -0.007613  -0.004659  -0.004659
     5  C    0.001745   0.001204   0.001207
     6  C   -0.000202   0.000048   0.000047
     7  C   -0.000006  -0.000095  -0.000095
     8  O    0.000006   0.000017   0.000017
     9  O    0.000027   0.000015   0.000015
    10  C   -0.026118  -0.016851  -0.016863
    11  O    0.016333  -0.004058  -0.004067
    12  O    0.002393  -0.013919  -0.013917
    13  C    0.382502   0.354153   0.354158
    14  H   -0.000058   0.000172   0.000172
    15  H    0.000917  -0.001467  -0.001469
    16  H   -0.000533  -0.002204  -0.002206
    17  H    0.000036   0.000013   0.000014
    18  H   -0.000003  -0.000003  -0.000003
    19  H    0.359117  -0.001494  -0.001510
    20  H   -0.001494   0.303275   0.006031
    21  H   -0.001510   0.006031   0.303299
 Mulliken charges:
               1
     1  C   -0.570052
     2  C   -0.848515
     3  C    2.385571
     4  C   -0.260935
     5  C   -0.636775
     6  C    2.132795
     7  C   -0.048971
     8  O   -0.910521
     9  O   -0.569025
    10  C   -0.029488
    11  O   -0.988131
    12  O   -0.295989
    13  C   -0.951310
    14  H    0.081457
    15  H    0.059872
    16  H    0.094133
    17  H    0.060767
    18  H    0.294025
    19  H    0.264236
    20  H    0.368428
    21  H    0.368428
 Sum of Mulliken charges =   0.00000
 Mulliken charges with hydrogens summed into heavy atoms:
               1
     1  C   -0.488594
     2  C   -0.788643
     3  C    2.385571
     4  C   -0.166802
     5  C   -0.576008
     6  C    2.132795
     7  C   -0.048971
     8  O   -0.910521
     9  O   -0.274999
    10  C   -0.029488
    11  O   -0.988131
    12  O   -0.295989
    13  C    0.049782
 Electronic spatial extent (au):  <R**2>=           3116.1914
 Charge=              0.0000 electrons
 Dipole moment (field-independent basis, Debye):
    X=             -0.9431    Y=             -2.7262    Z=              0.0000  Tot=              2.8847
 Quadrupole moment (field-independent basis, Debye-Ang):
   XX=            -70.8029   YY=            -75.0638   ZZ=            -74.6385
   XY=              0.5104   XZ=              0.0005   YZ=             -0.0001
 Traceless Quadrupole moment (field-independent basis, Debye-Ang):
   XX=              2.6988   YY=             -1.5620   ZZ=             -1.1368
   XY=              0.5104   XZ=              0.0005   YZ=             -0.0001
 Octapole moment (field-independent basis, Debye-Ang**2):
  XXX=            -25.8796  YYY=             -3.2557  ZZZ=              0.0005  XYY=              4.4006
  XXY=            -66.6491  XXZ=             -0.0001  XZZ=             -1.7259  YZZ=              0.1778
  YYZ=             -0.0008  XYZ=              0.0002
 Hexadecapole moment (field-independent basis, Debye-Ang**3):
 XXXX=          -2856.7556 YYYY=           -494.6262 ZZZZ=            -81.4803 XXXY=            -92.3573
 XXXZ=              0.0027 YYYX=             18.8993 YYYZ=              0.0013 ZZZX=             -0.0030
 ZZZY=             -0.0002 XXYY=           -686.8535 XXZZ=           -554.5642 YYZZ=           -107.3064
 XXYZ=             -0.0013 YYXZ=              0.0015 ZZXY=             -5.1743
 N-N= 7.569085058033D+02 E-N=-3.031178600198D+03  KE= 6.463950785614D+02
 ******************************Gaussian NBO Version 3.1******************************
             N A T U R A L   A T O M I C   O R B I T A L   A N D
          N A T U R A L   B O N D   O R B I T A L   A N A L Y S I S
 ******************************Gaussian NBO Version 3.1******************************
       /RESON  / : Allow strongly delocalized NBO set

 Analyzing the SCF density

 Job title: 4-CO2Me_benzoic-acid                                            

 Storage needed:   1837820 in NPA,   2448929 in NBO (********** available)
 GSVD:  LWork=       49732 too small for GESVD, short by     1069100 words or     1069100 for optimal perf.
 Remove ICRem=  112 ICRemI=  104 L=2 PNAO number  124 atom    3 type 255 NPNAO=  782
   due to symmetric orthogonalization 2, value= 0.00D+00.
 Remove ICRem=  112 ICRemI=  104 L=2 PNAO number  121 atom    3 type 254 NPNAO=  781
   due to symmetric orthogonalization 2, value= 0.00D+00.
 Remove ICRem=  112 ICRemI=  104 L=2 PNAO number  118 atom    3 type 253 NPNAO=  780
   due to symmetric orthogonalization 2, value= 0.00D+00.
 Remove ICRem=  112 ICRemI=  104 L=2 PNAO number  115 atom    3 type 252 NPNAO=  779
   due to symmetric orthogonalization 2, value= 0.00D+00.
 Remove ICRem=  112 ICRemI=  104 L=2 PNAO number  112 atom    3 type 251 NPNAO=  778
   due to symmetric orthogonalization 2, value= 0.00D+00.
 GSVD:  LWork=       60282 too small for GESVD, short by     1037495 words or     1037495 for optimal perf.
 Remove ICRem=  125 ICRemI=  104 L=3 PNAO number  133 atom    3 type 357 NPNAO=  777
   due to symmetric orthogonalization 2, value= 0.00D+00.
 Remove ICRem=  125 ICRemI=  104 L=3 PNAO number  131 atom    3 type 356 NPNAO=  776
   due to symmetric orthogonalization 2, value= 0.00D+00.
 Remove ICRem=  125 ICRemI=  104 L=3 PNAO number  129 atom    3 type 355 NPNAO=  775
   due to symmetric orthogonalization 2, value= 0.00D+00.
 Remove ICRem=  125 ICRemI=  104 L=3 PNAO number  127 atom    3 type 354 NPNAO=  774
   due to symmetric orthogonalization 2, value= 0.00D+00.
 Remove ICRem=  125 ICRemI=  104 L=3 PNAO number  125 atom    3 type 353 NPNAO=  773
   due to symmetric orthogonalization 2, value= 0.00D+00.
 Remove ICRem=  125 ICRemI=  104 L=3 PNAO number  123 atom    3 type 352 NPNAO=  772
   due to symmetric orthogonalization 2, value= 0.00D+00.
 Remove ICRem=  125 ICRemI=  104 L=3 PNAO number  121 atom    3 type 351 NPNAO=  771
   due to symmetric orthogonalization 2, value= 0.00D+00.
 GSVD:  LWork=       74884 too small for GESVD, short by      993752 words or      993752 for optimal perf.
 Remove ICRem=  414 ICRemI=  104 L=1 PNAO number  418 atom   10 type 153 NPNAO=  770
   due to symmetric orthogonalization 2, value= 0.00D+00.
 Remove ICRem=  414 ICRemI=  104 L=1 PNAO number  414 atom   10 type 152 NPNAO=  769
   due to symmetric orthogonalization 2, value= 0.00D+00.
 Remove ICRem=  414 ICRemI=  104 L=1 PNAO number  410 atom   10 type 151 NPNAO=  768
   due to symmetric orthogonalization 2, value= 0.00D+00.
 GSVD:  LWork=       81082 too small for GESVD, short by      975185 words or      975185 for optimal perf.
 Remove ICRem=  238 ICRemI=  230 L=2 PNAO number  250 atom    6 type 255 NPNAO=  767
   due to symmetric orthogonalization 2, value= 0.00D+00.
 Remove ICRem=  238 ICRemI=  230 L=2 PNAO number  247 atom    6 type 254 NPNAO=  766
   due to symmetric orthogonalization 2, value= 0.00D+00.
 Remove ICRem=  238 ICRemI=  230 L=2 PNAO number  244 atom    6 type 253 NPNAO=  765
   due to symmetric orthogonalization 2, value= 0.00D+00.
 Remove ICRem=  238 ICRemI=  230 L=2 PNAO number  241 atom    6 type 252 NPNAO=  764
   due to symmetric orthogonalization 2, value= 0.00D+00.
 Remove ICRem=  238 ICRemI=  230 L=2 PNAO number  238 atom    6 type 251 NPNAO=  763
   due to symmetric orthogonalization 2, value= 0.00D+00.
 GSVD:  LWork=       91332 too small for GESVD, short by      944480 words or      944480 for optimal perf.
 Remove ICRem=  251 ICRemI=  230 L=3 PNAO number  259 atom    6 type 357 NPNAO=  762
   due to symmetric orthogonalization 2, value= 0.00D+00.
 Remove ICRem=  251 ICRemI=  230 L=3 PNAO number  257 atom    6 type 356 NPNAO=  761
   due to symmetric orthogonalization 2, value= 0.00D+00.
 Remove ICRem=  251 ICRemI=  230 L=3 PNAO number  255 atom    6 type 355 NPNAO=  760
   due to symmetric orthogonalization 2, value= 0.00D+00.
 Remove ICRem=  251 ICRemI=  230 L=3 PNAO number  253 atom    6 type 354 NPNAO=  759
   due to symmetric orthogonalization 2, value= 0.00D+00.
 Remove ICRem=  251 ICRemI=  230 L=3 PNAO number  251 atom    6 type 353 NPNAO=  758
   due to symmetric orthogonalization 2, value= 0.00D+00.
 Remove ICRem=  251 ICRemI=  230 L=3 PNAO number  249 atom    6 type 352 NPNAO=  757
   due to symmetric orthogonalization 2, value= 0.00D+00.
 Remove ICRem=  251 ICRemI=  230 L=3 PNAO number  247 atom    6 type 351 NPNAO=  756
   due to symmetric orthogonalization 2, value= 0.00D+00.
 GSVD:  LWork=      105514 too small for GESVD, short by      901997 words or      901997 for optimal perf.
 Remove ICRem=   51 ICRemI=  104 L=0 PNAO number   51 atom    2 type  51 NPNAO=  755
   due to symmetric orthogonalization 2, value= 0.00D+00.
 GSVD:  LWork=      107524 too small for GESVD, short by      895976 words or      895976 for optimal perf.
 Remove ICRem=  176 ICRemI=  229 L=0 PNAO number  176 atom    5 type  51 NPNAO=  754
   due to symmetric orthogonalization 2, value= 0.00D+00.
 GSVD:  LWork=      109530 too small for GESVD, short by      889967 words or      889967 for optimal perf.
 Remove ICRem=    5 ICRemI=  228 L=0 PNAO number    5 atom    1 type  51 NPNAO=  753
   due to symmetric orthogonalization 2, value= 0.00D+00.
 GSVD:  LWork=      111532 too small for GESVD, short by      883970 words or      883970 for optimal perf.
 Remove ICRem=  129 ICRemI=  102 L=0 PNAO number  129 atom    4 type  51 NPNAO=  752
   due to symmetric orthogonalization 2, value= 0.00D+00.
 GSVD:  LWork=      113530 too small for GESVD, short by      877985 words or      877985 for optimal perf.
 Remove ICRem=  593 ICRemI=  102 L=0 PNAO number  593 atom   15 type  51 NPNAO=  751
   due to symmetric orthogonalization 2, value= 0.00D+00.
 GSVD:  LWork=      115524 too small for GESVD, short by      872012 words or      872012 for optimal perf.
 Remove ICRem=   56 ICRemI=  102 L=1 PNAO number   60 atom    2 type 153 NPNAO=  750
   due to symmetric orthogonalization 2, value= 0.00D+00.
 Remove ICRem=   56 ICRemI=  102 L=1 PNAO number   56 atom    2 type 152 NPNAO=  749
   due to symmetric orthogonalization 2, value= 0.00D+00.
 Remove ICRem=   56 ICRemI=  102 L=1 PNAO number   52 atom    2 type 151 NPNAO=  748
   due to symmetric orthogonalization 2, value= 0.00D+00.
 GSVD:  LWork=      121482 too small for GESVD, short by      854165 words or      854165 for optimal perf.

 Computed number of electrons   93.99932216 does not match expected value of    94.


 NATURAL POPULATIONS:  Natural atomic orbital occupancies 
                                                          
   NAO  Atom  No  lang   Type(AO)    Occupancy      Energy
 ----------------------------------------------------------
     1    C    1  S      Cor( 1S)     1.99877     -10.39847
     2    C    1  S      Val( 2S)     0.92372      -0.10396
     3    C    1  S      Ryd( 4S)     0.00188       4.13584
     4    C    1  S      Ryd( 3S)     0.00009       1.55545
     5    C    1  px     Val( 2p)     1.10074      -0.07777
     6    C    1  px     Ryd( 4p)     0.00374       1.54406
     7    C    1  px     Ryd( 3p)     0.00068       1.47257
     8    C    1  px     Ryd( 5p)     0.00012       3.26609
     9    C    1  py     Val( 2p)     1.13431      -0.07483
    10    C    1  py     Ryd( 3p)     0.00785       1.44652
    11    C    1  py     Ryd( 4p)     0.00044       1.71062
    12    C    1  py     Ryd( 5p)     0.00010       2.46395
    13    C    1  pz     Val( 2p)     0.94410      -0.13047
    14    C    1  pz     Ryd( 3p)     0.00077       0.78015
    15    C    1  pz     Ryd( 4p)     0.00057       1.48940
    16    C    1  pz     Ryd( 5p)     0.00011       1.77071
    17    C    1  dxy    Ryd( 4d)     0.00140       2.87852
    18    C    1  dxy    Ryd( 3d)     0.00026       2.42348
    19    C    1  dxy    Ryd( 5d)     0.00026       4.21781
    20    C    1  dxz    Ryd( 4d)     0.00004       1.60807
    21    C    1  dxz    Ryd( 3d)     0.00002       1.40334
    22    C    1  dxz    Ryd( 5d)     0.00018       3.52473
    23    C    1  dyz    Ryd( 4d)     0.00037       1.38091
    24    C    1  dyz    Ryd( 3d)     0.00006       1.09154
    25    C    1  dyz    Ryd( 5d)     0.00005       3.55601
    26    C    1  dx2y2  Ryd( 4d)     0.00134       3.57153
    27    C    1  dx2y2  Ryd( 3d)     0.00014       2.00275
    28    C    1  dx2y2  Ryd( 5d)     0.00045       4.57260
    29    C    1  dz2    Ryd( 3d)     0.00421       1.72626
    30    C    1  dz2    Ryd( 4d)     0.00052       2.07610
    31    C    1  dz2    Ryd( 5d)     0.00005       4.04800
    32    C    1  f(0)   Ryd( 4f)     0.00005       1.47956
    33    C    1  f(0)   Ryd( 5f)     0.00013       3.39143
    34    C    1  f(C1)  Ryd( 4f)     0.00129       2.06469
    35    C    1  f(C1)  Ryd( 5f)     0.00015       3.67834
    36    C    1  f(S1)  Ryd( 4f)     0.00073       1.87971
    37    C    1  f(S1)  Ryd( 5f)     0.00018       3.59185
    38    C    1  f(C2)  Ryd( 4f)     0.00023       1.53429
    39    C    1  f(C2)  Ryd( 5f)     0.00001       3.52587
    40    C    1  f(S2)  Ryd( 4f)     0.00031       1.51549
    41    C    1  f(S2)  Ryd( 5f)     0.00007       3.48159
    42    C    1  f(C3)  Ryd( 4f)     0.00134       3.00298
    43    C    1  f(C3)  Ryd( 5f)     0.00004       4.12849
    44    C    1  f(S3)  Ryd( 4f)     0.00129       1.84414
    45    C    1  f(S3)  Ryd( 5f)     0.00015       4.09147
 
    46    C    2  S      Cor( 1S)     1.99877     -10.39807
    47    C    2  S      Val( 2S)     0.92398      -0.10557
    48    C    2  S      Ryd( 4S)     0.00158       3.80404
    49    C    2  S      Ryd( 3S)     0.00016       1.71161
    50    C    2  px     Val( 2p)     1.06522      -0.07294
    51    C    2  px     Ryd( 3p)     0.00277       1.76788
    52    C    2  px     Ryd( 4p)     0.00013       3.04577
    53    C    2  py     Val( 2p)     1.14555      -0.08277
    54    C    2  py     Ryd( 3p)     0.00410       1.59906
    55    C    2  py     Ryd( 4p)     0.00011       2.27434
    56    C    2  pz     Val( 2p)     0.93427      -0.13113
    57    C    2  pz     Ryd( 3p)     0.00077       0.96093
    58    C    2  pz     Ryd( 4p)     0.00018       1.69690
    59    C    2  dxy    Ryd( 4d)     0.00104       3.47742
    60    C    2  dxy    Ryd( 3d)     0.00017       2.51730
    61    C    2  dxy    Ryd( 5d)     0.00025       4.14903
    62    C    2  dxz    Ryd( 3d)     0.00067       1.45075
    63    C    2  dxz    Ryd( 4d)     0.00014       1.81671
    64    C    2  dxz    Ryd( 5d)     0.00008       3.24825
    65    C    2  dyz    Ryd( 3d)     0.00129       1.21432
    66    C    2  dyz    Ryd( 4d)     0.00015       1.69763
    67    C    2  dyz    Ryd( 5d)     0.00003       3.01227
    68    C    2  dx2y2  Ryd( 4d)     0.00129       3.08615
    69    C    2  dx2y2  Ryd( 3d)     0.00044       2.97264
    70    C    2  dx2y2  Ryd( 5d)     0.00029       4.05051
    71    C    2  dz2    Ryd( 3d)     0.00419       1.55477
    72    C    2  dz2    Ryd( 4d)     0.00062       2.89834
    73    C    2  dz2    Ryd( 5d)     0.00024       3.34251
    74    C    2  f(0)   Ryd( 4f)     0.00033       1.52405
    75    C    2  f(0)   Ryd( 5f)     0.00008       3.35651
    76    C    2  f(C1)  Ryd( 4f)     0.00194       2.14317
    77    C    2  f(C1)  Ryd( 5f)     0.00010       3.69358
    78    C    2  f(S1)  Ryd( 4f)     0.00146       1.87180
    79    C    2  f(S1)  Ryd( 5f)     0.00013       3.57492
    80    C    2  f(C2)  Ryd( 4f)     0.00021       1.56629
    81    C    2  f(C2)  Ryd( 5f)     0.00002       3.54633
    82    C    2  f(S2)  Ryd( 4f)     0.00026       1.51196
    83    C    2  f(S2)  Ryd( 5f)     0.00002       3.40444
    84    C    2  f(C3)  Ryd( 4f)     0.00136       2.98078
    85    C    2  f(C3)  Ryd( 5f)     0.00005       4.10752
    86    C    2  f(S3)  Ryd( 4f)     0.00168       1.86941
    87    C    2  f(S3)  Ryd( 5f)     0.00013       4.12215
 
    88    C    3  S      Cor( 1S)     1.99895     -10.38441
    89    C    3  S      Val( 2S)     0.89786      -0.11847
    90    C    3  S      Ryd( 3S)     0.00177       1.98681
    91    C    3  S      Ryd( 5S)     0.00087       3.70553
    92    C    3  S      Ryd( 4S)     0.00003       2.95627
    93    C    3  px     Val( 2p)     1.10453      -0.11904
    94    C    3  px     Ryd( 4p)     0.00717       2.02487
    95    C    3  px     Ryd( 3p)     0.00033       1.10425
    96    C    3  px     Ryd( 5p)     0.00011       3.41548
    97    C    3  py     Val( 2p)     1.14971      -0.11927
    98    C    3  py     Ryd( 3p)     0.00804       1.31283
    99    C    3  py     Ryd( 4p)     0.00044       1.95102
   100    C    3  py     Ryd( 5p)     0.00022       3.79041
   101    C    3  pz     Val( 2p)     1.03355      -0.14661
   102    C    3  pz     Ryd( 3p)     0.00214       0.70356
   103    C    3  pz     Ryd( 4p)     0.00068       1.19858
   104    C    3  pz     Ryd( 5p)     0.00017       2.68399
   105    C    3  dxy    Ryd( 3d)     0.00161       2.25797
   106    C    3  dxy    Ryd( 4d)     0.00020       3.42858
   107    C    3  dxz    Ryd( 3d)     0.00024       1.30551
   108    C    3  dxz    Ryd( 4d)     0.00011       2.69408
   109    C    3  dyz    Ryd( 3d)     0.00050       1.22065
   110    C    3  dyz    Ryd( 4d)     0.00008       2.80382
   111    C    3  dx2y2  Ryd( 4d)     0.00142       3.30537
   112    C    3  dx2y2  Ryd( 3d)     0.00035       3.09481
   113    C    3  dz2    Ryd( 3d)     0.00105       1.07291
   114    C    3  dz2    Ryd( 4d)     0.00014       3.70741
   115    C    3  f(0)   Ryd( 4f)     0.00062       1.92513
   116    C    3  f(C1)  Ryd( 4f)     0.00036       2.57672
   117    C    3  f(S1)  Ryd( 4f)     0.00127       2.67742
   118    C    3  f(C2)  Ryd( 4f)     0.00037       2.25120
   119    C    3  f(S2)  Ryd( 4f)     0.00035       2.29320
   120    C    3  f(C3)  Ryd( 4f)     0.00059       3.66356
   121    C    3  f(S3)  Ryd( 4f)     0.00087       3.50000
 
   122    C    4  S      Cor( 1S)     1.99878     -10.39799
   123    C    4  S      Val( 2S)     0.92047      -0.11189
   124    C    4  S      Ryd( 4S)     0.00136       4.28562
   125    C    4  S      Ryd( 3S)     0.00004       1.75855
   126    C    4  px     Val( 2p)     1.10199      -0.08048
   127    C    4  px     Ryd( 3p)     0.00356       1.67619
   128    C    4  px     Ryd( 5p)     0.00020       2.51195
   129    C    4  px     Ryd( 4p)     0.00010       2.17086
   130    C    4  py     Val( 2p)     1.13540      -0.07925
   131    C    4  py     Ryd( 3p)     0.00500       1.81159
   132    C    4  py     Ryd( 5p)     0.00010       2.04837
   133    C    4  py     Ryd( 4p)     0.00009       1.84499
   134    C    4  pz     Val( 2p)     0.95366      -0.13290
   135    C    4  pz     Ryd( 3p)     0.00080       0.96340
   136    C    4  pz     Ryd( 5p)     0.00013       1.37077
   137    C    4  pz     Ryd( 4p)     0.00017       1.18687
   138    C    4  dxy    Ryd( 4d)     0.00188       2.68765
   139    C    4  dxy    Ryd( 3d)     0.00015       2.40743
   140    C    4  dxy    Ryd( 5d)     0.00018       4.32145
   141    C    4  dxz    Ryd( 4d)     0.00063       1.53260
   142    C    4  dxz    Ryd( 3d)     0.00007       1.47434
   143    C    4  dxz    Ryd( 5d)     0.00008       3.56289
   144    C    4  dyz    Ryd( 3d)     0.00063       1.23782
   145    C    4  dyz    Ryd( 4d)     0.00018       1.26481
   146    C    4  dyz    Ryd( 5d)     0.00004       3.49169
   147    C    4  dx2y2  Ryd( 4d)     0.00134       3.36697
   148    C    4  dx2y2  Ryd( 3d)     0.00022       2.38001
   149    C    4  dx2y2  Ryd( 5d)     0.00049       4.31363
   150    C    4  dz2    Ryd( 3d)     0.00482       1.61380
   151    C    4  dz2    Ryd( 4d)     0.00066       2.46292
   152    C    4  dz2    Ryd( 5d)     0.00012       3.77346
   153    C    4  f(0)   Ryd( 4f)     0.00013       1.51516
   154    C    4  f(0)   Ryd( 5f)     0.00013       3.39265
   155    C    4  f(C1)  Ryd( 4f)     0.00129       2.12307
   156    C    4  f(C1)  Ryd( 5f)     0.00015       3.72764
   157    C    4  f(S1)  Ryd( 4f)     0.00061       1.96259
   158    C    4  f(S1)  Ryd( 5f)     0.00014       3.62018
   159    C    4  f(C2)  Ryd( 4f)     0.00025       1.55731
   160    C    4  f(C2)  Ryd( 5f)     0.00001       3.53137
   161    C    4  f(S2)  Ryd( 4f)     0.00016       1.52605
   162    C    4  f(S2)  Ryd( 5f)     0.00005       3.50046
   163    C    4  f(C3)  Ryd( 4f)     0.00128       3.08471
   164    C    4  f(C3)  Ryd( 5f)     0.00003       4.17082
   165    C    4  f(S3)  Ryd( 4f)     0.00124       1.96043
   166    C    4  f(S3)  Ryd( 5f)     0.00019       4.20382
 
   167    C    5  S      Cor( 1S)     1.99878     -10.39893
   168    C    5  S      Val( 2S)     0.92068      -0.11054
   169    C    5  S      Ryd( 4S)     0.00146       4.31152
   170    C    5  S      Ryd( 3S)     0.00004       1.85629
   171    C    5  px     Val( 2p)     1.08457      -0.07697
   172    C    5  px     Ryd( 4p)     0.00335       1.67050
   173    C    5  px     Ryd( 5p)     0.00026       3.14168
   174    C    5  px     Ryd( 3p)     0.00006       1.27771
   175    C    5  py     Val( 2p)     1.15030      -0.08293
   176    C    5  py     Ryd( 4p)     0.00517       1.77917
   177    C    5  py     Ryd( 5p)     0.00013       2.69306
   178    C    5  py     Ryd( 3p)     0.00008       1.14949
   179    C    5  pz     Val( 2p)     0.95261      -0.13350
   180    C    5  pz     Ryd( 4p)     0.00089       0.95951
   181    C    5  pz     Ryd( 5p)     0.00009       1.82200
   182    C    5  pz     Ryd( 3p)     0.00006       0.71574
   183    C    5  dxy    Ryd( 4d)     0.00193       3.14205
   184    C    5  dxy    Ryd( 3d)     0.00025       2.52931
   185    C    5  dxy    Ryd( 5d)     0.00018       4.05666
   186    C    5  dxz    Ryd( 3d)     0.00049       1.63097
   187    C    5  dxz    Ryd( 4d)     0.00006       1.64499
   188    C    5  dxz    Ryd( 5d)     0.00014       3.36930
   189    C    5  dyz    Ryd( 4d)     0.00033       1.35578
   190    C    5  dyz    Ryd( 3d)     0.00004       1.25186
   191    C    5  dyz    Ryd( 5d)     0.00004       3.42248
   192    C    5  dx2y2  Ryd( 4d)     0.00122       2.93475
   193    C    5  dx2y2  Ryd( 3d)     0.00019       2.46346
   194    C    5  dx2y2  Ryd( 5d)     0.00039       4.38692
   195    C    5  dz2    Ryd( 3d)     0.00424       1.59665
   196    C    5  dz2    Ryd( 4d)     0.00059       2.20152
   197    C    5  dz2    Ryd( 5d)     0.00005       3.96536
   198    C    5  f(0)   Ryd( 4f)     0.00018       1.49406
   199    C    5  f(0)   Ryd( 5f)     0.00011       3.38801
   200    C    5  f(C1)  Ryd( 4f)     0.00124       2.09606
   201    C    5  f(C1)  Ryd( 5f)     0.00016       3.70626
   202    C    5  f(S1)  Ryd( 4f)     0.00058       1.91204
   203    C    5  f(S1)  Ryd( 5f)     0.00016       3.57826
   204    C    5  f(C2)  Ryd( 4f)     0.00024       1.55913
   205    C    5  f(C2)  Ryd( 5f)     0.00002       3.58101
   206    C    5  f(S2)  Ryd( 4f)     0.00030       1.50543
   207    C    5  f(S2)  Ryd( 5f)     0.00004       3.43774
   208    C    5  f(C3)  Ryd( 4f)     0.00135       2.74950
   209    C    5  f(C3)  Ryd( 5f)     0.00007       4.11388
   210    C    5  f(S3)  Ryd( 4f)     0.00138       2.01320
   211    C    5  f(S3)  Ryd( 5f)     0.00018       4.17108
 
   212    C    6  S      Cor( 1S)     1.99888     -10.38401
   213    C    6  S      Val( 2S)     0.89366      -0.12064
   214    C    6  S      Ryd( 3S)     0.00197       2.33252
   215    C    6  S      Ryd( 4S)     0.00068       3.08836
   216    C    6  S      Ryd( 5S)     0.00004       3.26977
   217    C    6  px     Val( 2p)     1.10317      -0.11956
   218    C    6  px     Ryd( 4p)     0.00705       2.20051
   219    C    6  px     Ryd( 5p)     0.00017       3.24268
   220    C    6  px     Ryd( 3p)     0.00004       1.26313
   221    C    6  py     Val( 2p)     1.15151      -0.11841
   222    C    6  py     Ryd( 4p)     0.00469       1.68744
   223    C    6  py     Ryd( 5p)     0.00045       3.27751
   224    C    6  py     Ryd( 3p)     0.00006       1.39554
   225    C    6  pz     Val( 2p)     1.03895      -0.14566
   226    C    6  pz     Ryd( 4p)     0.00096       0.90005
   227    C    6  pz     Ryd( 5p)     0.00022       2.35881
   228    C    6  pz     Ryd( 3p)     0.00003       0.79670
   229    C    6  dxy    Ryd( 3d)     0.00205       1.61340
   230    C    6  dxy    Ryd( 4d)     0.00027       3.83194
   231    C    6  dxz    Ryd( 3d)     0.00020       1.12425
   232    C    6  dxz    Ryd( 4d)     0.00009       2.84737
   233    C    6  dyz    Ryd( 3d)     0.00033       1.05755
   234    C    6  dyz    Ryd( 4d)     0.00005       2.75466
   235    C    6  dx2y2  Ryd( 3d)     0.00080       3.04062
   236    C    6  dx2y2  Ryd( 4d)     0.00039       3.21139
   237    C    6  dz2    Ryd( 3d)     0.00056       0.93048
   238    C    6  dz2    Ryd( 4d)     0.00017       3.77628
   239    C    6  f(0)   Ryd( 4f)     0.00013       1.86800
   240    C    6  f(C1)  Ryd( 4f)     0.00051       2.35255
   241    C    6  f(S1)  Ryd( 4f)     0.00111       2.46475
   242    C    6  f(C2)  Ryd( 4f)     0.00027       2.19110
   243    C    6  f(S2)  Ryd( 4f)     0.00075       1.86063
   244    C    6  f(C3)  Ryd( 4f)     0.00061       3.41424
   245    C    6  f(S3)  Ryd( 4f)     0.00097       3.37123
 
   246    C    7  S      Cor( 1S)     1.99908     -10.54279
   247    C    7  S      Val( 2S)     0.78087      -0.11887
   248    C    7  S      Ryd( 4S)     0.00355       2.06999
   249    C    7  S      Ryd( 5S)     0.00025       3.22733
   250    C    7  S      Ryd( 3S)     0.00010       1.62356
   251    C    7  px     Val( 2p)     0.92138      -0.05366
   252    C    7  px     Ryd( 4p)     0.00647       1.59152
   253    C    7  px     Ryd( 3p)     0.00024       1.38483
   254    C    7  px     Ryd( 5p)     0.00003       1.70724
   255    C    7  py     Val( 2p)     0.72442      -0.03071
   256    C    7  py     Ryd( 4p)     0.01210       1.58302
   257    C    7  py     Ryd( 3p)     0.00011       1.23065
   258    C    7  py     Ryd( 5p)     0.00003       1.99670
   259    C    7  pz     Val( 2p)     0.75626      -0.13138
   260    C    7  pz     Ryd( 4p)     0.00060       1.13590
   261    C    7  pz     Ryd( 3p)     0.00007       0.76581
   262    C    7  pz     Ryd( 5p)     0.00005       1.18440
   263    C    7  dxy    Ryd( 3d)     0.00067       3.00717
   264    C    7  dxy    Ryd( 4d)     0.00023       3.15252
   265    C    7  dxy    Ryd( 5d)     0.00007       3.30963
   266    C    7  dxz    Ryd( 3d)     0.00136       2.05805
   267    C    7  dxz    Ryd( 4d)     0.00004       2.17703
   268    C    7  dxz    Ryd( 5d)     0.00009       2.39020
   269    C    7  dyz    Ryd( 3d)     0.00211       2.17250
   270    C    7  dyz    Ryd( 4d)     0.00003       2.24703
   271    C    7  dyz    Ryd( 5d)     0.00007       2.66190
   272    C    7  dx2y2  Ryd( 3d)     0.00258       2.75056
   273    C    7  dx2y2  Ryd( 4d)     0.00019       2.82811
   274    C    7  dx2y2  Ryd( 5d)     0.00007       3.64417
   275    C    7  dz2    Ryd( 3d)     0.00060       2.59456
   276    C    7  dz2    Ryd( 4d)     0.00079       2.99912
   277    C    7  dz2    Ryd( 5d)     0.00009       3.08253
   278    C    7  f(0)   Ryd( 5f)     0.00014       3.55094
   279    C    7  f(0)   Ryd( 4f)     0.00002       2.12121
   280    C    7  f(C1)  Ryd( 5f)     0.00011       3.85801
   281    C    7  f(C1)  Ryd( 4f)     0.00004       3.14700
   282    C    7  f(S1)  Ryd( 5f)     0.00006       3.71327
   283    C    7  f(S1)  Ryd( 4f)     0.00003       3.09649
   284    C    7  f(C2)  Ryd( 5f)     0.00001       3.50153
   285    C    7  f(C2)  Ryd( 4f)     0.00010       2.42459
   286    C    7  f(S2)  Ryd( 5f)     0.00002       3.70690
   287    C    7  f(S2)  Ryd( 4f)     0.00012       2.85126
   288    C    7  f(C3)  Ryd( 4f)     0.00013       4.37812
   289    C    7  f(C3)  Ryd( 5f)     0.00003       7.02197
   290    C    7  f(S3)  Ryd( 5f)     0.00010       4.65712
   291    C    7  f(S3)  Ryd( 4f)     0.00003       4.01442
 
   292    O    8  S      Cor( 1S)     1.99979     -19.33236
   293    O    8  S      Val( 2S)     1.70658      -1.00671
   294    O    8  S      Ryd( 4S)     0.00082       2.79582
   295    O    8  S      Ryd( 3S)     0.00017       1.45685
   296    O    8  S      Ryd( 5S)     0.00001       9.03000
   297    O    8  px     Val( 2p)     1.73939      -0.34344
   298    O    8  px     Ryd( 4p)     0.00099       1.42143
   299    O    8  px     Ryd( 3p)     0.00016       0.67806
   300    O    8  px     Ryd( 5p)     0.00005       4.85061
   301    O    8  py     Val( 2p)     1.67846      -0.34432
   302    O    8  py     Ryd( 4p)     0.00137       1.39416
   303    O    8  py     Ryd( 3p)     0.00007       0.64465
   304    O    8  py     Ryd( 5p)     0.00005       5.14391
   305    O    8  pz     Val( 2p)     1.44556      -0.29403
   306    O    8  pz     Ryd( 4p)     0.00054       1.05291
   307    O    8  pz     Ryd( 3p)     0.00001       0.57899
   308    O    8  pz     Ryd( 5p)     0.00001       4.16274
   309    O    8  dxy    Ryd( 3d)     0.00790       2.05603
   310    O    8  dxy    Ryd( 4d)     0.00012       3.54174
   311    O    8  dxy    Ryd( 5d)     0.00002       6.63369
   312    O    8  dxz    Ryd( 3d)     0.00262       1.49419
   313    O    8  dxz    Ryd( 4d)     0.00001       1.68136
   314    O    8  dxz    Ryd( 5d)     0.00001       6.44971
   315    O    8  dyz    Ryd( 3d)     0.00410       1.52571
   316    O    8  dyz    Ryd( 4d)     0.00004       1.70235
   317    O    8  dyz    Ryd( 5d)     0.00002       6.41883
   318    O    8  dx2y2  Ryd( 3d)     0.00550       1.83442
   319    O    8  dx2y2  Ryd( 4d)     0.00008       2.08470
   320    O    8  dx2y2  Ryd( 5d)     0.00004       6.50710
   321    O    8  dz2    Ryd( 3d)     0.00277       1.65579
   322    O    8  dz2    Ryd( 4d)     0.00009       2.59402
   323    O    8  dz2    Ryd( 5d)     0.00000       6.53461
   324    O    8  f(0)   Ryd( 4f)     0.00011       3.17964
   325    O    8  f(0)   Ryd( 5f)     0.00001       5.43986
   326    O    8  f(C1)  Ryd( 4f)     0.00009       3.43239
   327    O    8  f(C1)  Ryd( 5f)     0.00002       5.58182
   328    O    8  f(S1)  Ryd( 4f)     0.00010       3.57821
   329    O    8  f(S1)  Ryd( 5f)     0.00001       5.70700
   330    O    8  f(C2)  Ryd( 4f)     0.00004       3.11597
   331    O    8  f(C2)  Ryd( 5f)     0.00002       5.66607
   332    O    8  f(S2)  Ryd( 4f)     0.00027       3.25050
   333    O    8  f(S2)  Ryd( 5f)     0.00001       5.53237
   334    O    8  f(C3)  Ryd( 4f)     0.00036       4.06116
   335    O    8  f(C3)  Ryd( 5f)     0.00002       6.01427
   336    O    8  f(S3)  Ryd( 4f)     0.00039       3.66373
   337    O    8  f(S3)  Ryd( 5f)     0.00002       5.92248
 
   338    O    9  S      Cor( 1S)     1.99978     -19.46258
   339    O    9  S      Val( 2S)     1.67714      -1.03848
   340    O    9  S      Ryd( 3S)     0.00047       1.69093
   341    O    9  S      Ryd( 4S)     0.00020       2.41834
   342    O    9  S      Ryd( 5S)     0.00001       9.63241
   343    O    9  px     Val( 2p)     1.49903      -0.36758
   344    O    9  px     Ryd( 4p)     0.00059       1.18410
   345    O    9  px     Ryd( 3p)     0.00014       1.01565
   346    O    9  px     Ryd( 5p)     0.00003       5.03104
   347    O    9  py     Val( 2p)     1.66051      -0.40162
   348    O    9  py     Ryd( 4p)     0.00086       1.10310
   349    O    9  py     Ryd( 3p)     0.00009       0.70187
   350    O    9  py     Ryd( 5p)     0.00006       4.83091
   351    O    9  pz     Val( 2p)     1.84458      -0.41643
   352    O    9  pz     Ryd( 4p)     0.00102       0.90157
   353    O    9  pz     Ryd( 3p)     0.00001       0.61790
   354    O    9  pz     Ryd( 5p)     0.00000       4.06544
   355    O    9  dxy    Ryd( 3d)     0.00495       1.86060
   356    O    9  dxy    Ryd( 4d)     0.00015       2.52876
   357    O    9  dxy    Ryd( 5d)     0.00003       6.73593
   358    O    9  dxz    Ryd( 3d)     0.00058       1.19977
   359    O    9  dxz    Ryd( 4d)     0.00007       1.89327
   360    O    9  dxz    Ryd( 5d)     0.00001       6.46172
   361    O    9  dyz    Ryd( 3d)     0.00426       1.35499
   362    O    9  dyz    Ryd( 4d)     0.00002       1.66485
   363    O    9  dyz    Ryd( 5d)     0.00003       6.48622
   364    O    9  dx2y2  Ryd( 3d)     0.00490       1.87193
   365    O    9  dx2y2  Ryd( 4d)     0.00008       2.20850
   366    O    9  dx2y2  Ryd( 5d)     0.00006       6.91997
   367    O    9  dz2    Ryd( 3d)     0.00302       1.54853
   368    O    9  dz2    Ryd( 4d)     0.00015       2.32348
   369    O    9  dz2    Ryd( 5d)     0.00001       6.71273
   370    O    9  f(0)   Ryd( 4f)     0.00049       2.81174
   371    O    9  f(0)   Ryd( 5f)     0.00001       5.88242
   372    O    9  f(C1)  Ryd( 4f)     0.00022       3.37579
   373    O    9  f(C1)  Ryd( 5f)     0.00002       6.18014
   374    O    9  f(S1)  Ryd( 4f)     0.00017       3.42651
   375    O    9  f(S1)  Ryd( 5f)     0.00001       6.10152
   376    O    9  f(C2)  Ryd( 4f)     0.00004       2.88842
   377    O    9  f(C2)  Ryd( 5f)     0.00001       6.02696
   378    O    9  f(S2)  Ryd( 4f)     0.00006       2.85947
   379    O    9  f(S2)  Ryd( 5f)     0.00001       5.93296
   380    O    9  f(C3)  Ryd( 4f)     0.00015       4.44913
   381    O    9  f(C3)  Ryd( 5f)     0.00006       6.54232
   382    O    9  f(S3)  Ryd( 4f)     0.00005       3.76588
   383    O    9  f(S3)  Ryd( 5f)     0.00002       6.37125
 
   384    C   10  S      Cor( 1S)     1.99901     -10.54377
   385    C   10  S      Val( 2S)     0.77850      -0.11726
   386    C   10  S      Ryd( 3S)     0.00407       1.89655
   387    C   10  S      Ryd( 5S)     0.00052       2.99617
   388    C   10  S      Ryd( 4S)     0.00007       1.92910
   389    C   10  px     Val( 2p)     0.90274      -0.05652
   390    C   10  px     Ryd( 3p)     0.00456       1.74733
   391    C   10  px     Ryd( 4p)     0.00007       2.35285
   392    C   10  py     Val( 2p)     0.71021      -0.00607
   393    C   10  py     Ryd( 3p)     0.01298       1.59183
   394    C   10  py     Ryd( 4p)     0.00010       2.42513
   395    C   10  pz     Val( 2p)     0.75328      -0.13223
   396    C   10  pz     Ryd( 3p)     0.00061       1.07772
   397    C   10  pz     Ryd( 4p)     0.00005       1.77495
   398    C   10  dxy    Ryd( 4d)     0.00107       3.88444
   399    C   10  dxy    Ryd( 3d)     0.00051       1.67855
   400    C   10  dxy    Ryd( 5d)     0.00011       4.05243
   401    C   10  dxz    Ryd( 4d)     0.00091       2.75028
   402    C   10  dxz    Ryd( 3d)     0.00026       1.00017
   403    C   10  dxz    Ryd( 5d)     0.00014       3.12709
[...]
 234,0.00000179,0.01455747,-0.02465303,0.00000411,-0.00268547,-0.202241
 16,-0.00004449,-0.01360958,-0.01462035,-0.00001079,-0.00133562,0.00338
 725,-0.00000011,0.00057003,0.00576581,0.00000161,-0.00075140,-0.010776
 39,-0.00000278,-0.00164219,0.00469082,-0.00000055,0.00231844,0.0035198
 7,0.00000116,0.18772993,0.74145300,-0.00000721,0.00000172,0.00790485,0
 .00000542,0.00000972,0.00304849,-0.00000956,-0.00001438,-0.08454587,0.
 00000531,-0.00002002,0.00146594,-0.00000989,-0.00000616,0.00843351,-0.
 00000252,0.00000226,-0.00075303,0.00000060,-0.00000173,-0.00139755,-0.
 00000064,0.00000082,0.00016749,0.00000017,0.00000018,0.00007333,0.0003
 8012,0.00010903,0.21976458,0.00147876,-0.00155716,0.00000030,-0.006540
 34,0.00482670,-0.00000433,-0.00972632,-0.02649631,-0.00001663,0.002521
 15,-0.00096646,0.00000022,0.00041967,-0.00060719,0.00000048,0.00033401
 ,-0.00024544,0.00000026,-0.00000727,0.00151097,0.00000050,0.00050365,-
 0.00082966,0.00000022,-0.00001946,-0.00031351,-0.00000008,-0.55622556,
 -0.29405552,-0.00024173,0.68432031,-0.00036057,0.00133306,0.,-0.003143
 59,-0.00123320,-0.00000264,-0.04671347,-0.03238699,-0.00002701,0.00666
 199,-0.00607919,0.00000199,-0.00175596,-0.00272854,-0.00000254,-0.0017
 4381,-0.00224783,-0.00000166,-0.00004497,0.00442325,0.00000080,0.00084
 483,-0.00206747,0.00000041,-0.00086229,-0.00161211,-0.00000042,-0.2847
 2054,-0.30265689,-0.00014378,0.33079745,0.31337065,0.00000105,0.000000
 39,-0.00078041,-0.00000315,0.00000156,0.00017466,-0.00002137,-0.000027
 60,0.02119184,0.00000004,-0.00000034,0.00211769,0.00000179,-0.00000026
 ,-0.00161176,-0.00000042,-0.00000097,0.00002439,-0.00000011,0.00000163
 ,0.00014511,0.00000043,-0.00000075,0.00000738,-0.00000019,-0.00000040,
 0.00000760,-0.00023471,-0.00014124,-0.08128529,0.00034934,0.00017459,0
 .03464448,0.00080880,0.00022946,0.00000115,0.00178173,-0.00045051,0.,-
 0.00490008,0.01519445,-0.00001216,-0.00483339,-0.00111361,-0.00000242,
 0.00108823,0.00072658,0.00000171,0.00018508,0.00125300,0.00000035,-0.0
 0039196,-0.00260503,-0.00000082,-0.00010610,0.00104109,0.00000008,0.00
 084913,0.00104755,0.00000036,-0.23546281,0.05797848,-0.00012134,-0.119
 69995,-0.00288606,-0.00009618,0.43905347,0.00194945,-0.00205570,-0.000
 00011,-0.00582623,-0.00598635,-0.00000548,0.04401465,-0.03095301,0.000
 03053,0.00096664,-0.00527393,-0.00000047,0.00046624,0.00096588,0.00000
 045,0.00109026,-0.00230703,0.,0.00060749,0.00460917,0.00000107,0.00055
 981,-0.00225346,0.00000022,-0.00119343,-0.00174111,-0.00000053,0.07393
 353,-0.16394057,0.00005026,0.00047316,0.03210304,0.00000018,-0.0838439
 6,0.49173433,0.00000070,-0.00000009,-0.00038431,0.00000010,-0.00000061
 ,0.00118218,-0.00000565,0.00000090,0.01067199,-0.00000406,-0.00000119,
 0.00057872,0.00000144,0.00000129,-0.00072768,0.00000048,0.00000063,0.0
 0000611,-0.00000028,-0.00000157,0.00008181,-0.00000001,0.00000061,-0.0
 0000167,0.00000053,0.00000068,0.00002455,-0.00012833,0.00004223,-0.068
 49620,-0.00009271,-0.00000198,0.03044866,0.00024996,-0.00004947,0.0799
 9685,-0.00053378,-0.00001542,0.00000002,0.00047046,0.00140749,0.000000
 43,-0.00513998,0.00071636,-0.00000858,-0.00035902,-0.00082141,-0.00000
 018,0.00030684,0.00016809,0.00000024,0.00010186,-0.00030786,-0.0000000
 4,0.00008785,0.00031297,0.00000011,0.00004118,-0.00014276,0.00000002,-
 0.00009102,-0.00011080,-0.00000003,-0.00501188,0.04775598,-0.00000193,
 -0.00025319,0.00377676,0.00000373,-0.08785331,-0.02979085,-0.00001920,
 0.63828575,0.00006372,0.00048855,0.00000030,0.00049001,0.00007154,0.00
 000051,-0.00097466,0.00428532,-0.00000012,0.00013211,0.00084989,0.0000
 0029,-0.00020636,-0.00014224,-0.00000004,-0.00023157,0.00089189,0.0000
 0015,-0.00018106,-0.00200454,-0.00000042,-0.00031187,0.00101163,-0.000
 00014,0.00047142,0.00077450,0.00000021,0.04118275,-0.04144497,0.000026
 70,-0.01890401,-0.00316762,-0.00000989,-0.00122599,-0.21958658,-0.0000
 0296,-0.01202877,0.46596408,-0.00000032,0.00000002,-0.00036090,0.00000
 027,0.00000114,0.00036860,-0.00000736,-0.00000181,0.00572520,-0.000000
 32,-0.00000083,-0.00023965,0.00000018,0.00000030,0.00010551,0.00000020
 ,-0.00000034,-0.00000623,0.00000007,0.00000025,-0.00004313,0.00000005,
 -0.00000009,0.00000824,-0.00000005,-0.00000006,-0.00000847,-0.00000403
 ,0.00003880,0.00212542,0.00000260,0.00000208,-0.00636487,-0.00001749,-
 0.00002399,-0.06706051,0.00003463,-0.00001198,0.59444039,-0.26824205,0
 .12792265,-0.00010661,0.00656596,-0.00280032,0.00000036,0.00136151,-0.
 00121034,-0.00000453,0.00022673,-0.00074469,0.00000067,-0.00303179,-0.
 00389363,-0.00000701,-0.01919362,0.01541285,-0.00001072,-0.00281683,0.
 00234966,0.00000106,0.00249456,0.00045407,0.00000214,0.00092272,-0.000
 02772,0.00000022,0.00026006,-0.00013568,0.00000006,-0.00003146,0.00003
 565,-0.00000006,0.00003528,-0.00012919,0.00000010,0.00001987,-0.000008
 42,0.00000005,0.28191090,0.12980823,-0.13823134,0.00005509,0.02629451,
 -0.01005286,0.00001209,-0.00105863,-0.00517590,-0.00000412,-0.00092546
 ,-0.00090141,-0.00000058,-0.00345843,-0.00133528,-0.00000400,-0.012176
 73,0.01284547,-0.00000511,-0.00203220,0.00056715,0.00000024,0.00040930
 ,-0.00197235,-0.00000003,0.00138374,0.00039832,0.00000044,0.00152608,0
 .00050159,0.00000093,-0.00033982,-0.00016151,-0.00000014,0.00010088,-0
 .00075566,0.00000008,0.00011113,0.00008109,0.00000010,-0.13839160,0.14
 255509,-0.00010824,0.00005266,-0.04182537,0.00000772,-0.00000460,0.004
 75670,-0.00000362,-0.00000390,0.00802187,0.00000042,-0.00000090,-0.001
 07845,-0.00000708,-0.00000423,0.00643323,-0.00001552,0.00001310,0.0045
 7273,0.00000027,0.00000108,-0.00401812,0.00000135,0.00000020,-0.000230
 63,0.00000086,0.00000030,0.00009386,0.00000040,-0.00000011,-0.00001430
 ,-0.00000011,0.00000003,0.00009845,0.00000009,-0.00000018,-0.00010779,
 0.00000005,0.,-0.00004226,0.00012109,-0.00005582,0.02820027,0.00597985
 ,0.00242162,0.00000138,-0.27514317,-0.12450071,-0.00017479,-0.01930666
 ,-0.01450384,-0.00001829,-0.00289043,0.00389871,-0.00000467,0.00024208
 ,0.00076717,0.00000097,0.00143618,0.00102937,-0.00000360,0.00024269,0.
 00016489,0.00000029,-0.00001692,-0.00004424,-0.00000009,0.00003420,0.0
 0010161,0.00000005,-0.00288357,-0.00230866,0.00000034,0.00251362,-0.00
 062331,0.00000129,0.00084907,-0.00001802,0.00000067,-0.00002644,0.0001
 2847,-0.00000012,0.00048980,-0.00038968,0.00000284,0.28934489,-0.02667
 553,-0.00945546,-0.00002011,-0.12632218,-0.13132834,-0.00009961,0.0129
 3239,0.01306264,0.00001029,0.00346874,-0.00157560,0.00000025,0.0008848
 9,-0.00091495,0.00000054,0.00090715,-0.00518670,-0.00000304,-0.0015470
 0,0.00047676,-0.00000107,0.00033118,-0.00017569,0.00000033,-0.00008434
 ,-0.00068541,0.00000003,0.00226900,0.00047267,0.00000261,-0.00054221,-
 0.00197182,-0.00000061,-0.00147175,0.00057509,-0.00000114,0.00000421,-
 0.00024987,-0.00000004,0.00039469,0.00116737,0.00000163,0.13470044,0.1
 3517986,-0.00000580,-0.00000143,0.00465920,-0.00017385,-0.00009941,-0.
 04158692,-0.00001278,-0.00000566,0.00452458,-0.00000469,0.00000039,0.0
 0649681,0.00000114,0.00000021,-0.00105888,-0.00000448,-0.00000248,0.00
 799637,-0.00000002,-0.00000003,0.00007767,-0.00000006,0.00000001,0.000
 08222,0.00000008,0.,-0.00012270,0.00000111,-0.00000150,-0.00393209,0.0
 0000196,-0.00000049,-0.00028583,0.00000012,0.00000031,0.00009318,-0.00
 000016,0.,0.00014324,0.00000321,0.00000116,-0.00446046,0.00019412,0.00
 010917,0.02804911,0.00017660,-0.00081904,0.00000058,-0.00309251,-0.003
 95587,-0.00000720,-0.01856539,0.01552077,-0.00000974,-0.27276584,0.127
 21449,-0.00011088,0.00596348,-0.00266665,0.00000021,0.00147398,-0.0010
 1467,-0.00000433,0.00024401,-0.00029096,-0.00000018,0.00000673,-0.0000
 5511,0.00000021,0.00002110,0.00008436,0.00000003,-0.00225109,0.0020406
 9,0.00000116,0.00088489,-0.00017048,0.00000016,0.00155441,0.00081043,0
 .00000113,0.00062736,-0.00064106,0.00000061,0.00000106,0.00009178,0.00
 000066,-0.00088364,0.00090959,-0.00000054,0.28607406,-0.00091478,-0.00
 091649,-0.00000055,-0.00359322,-0.00114125,-0.00000403,-0.01270771,0.0
 1240994,-0.00000532,0.12926206,-0.13521319,0.00005566,0.02693353,-0.01
 050379,0.00001263,-0.00112645,-0.00525041,-0.00000424,0.00152389,0.000
 58752,0.00000064,0.00019434,-0.00084767,0.00000032,-0.00027603,-0.0001
 4737,-0.00000003,-0.00084137,0.00148266,0.00000049,0.00084817,0.000091
 60,0.00000036,-0.00057417,-0.00393092,-0.00000069,0.00001327,-0.000494
 11,-0.00000001,0.00008464,-0.00000062,0.00000028,-0.00080808,0.0006213
 2,-0.00000045,-0.13772696,0.14198178,0.00000040,-0.00000076,-0.0010702
 1,-0.00000721,-0.00000438,0.00674363,-0.00001538,0.00001294,0.00368004
 ,-0.00011197,0.00005347,-0.04074216,0.00000752,-0.00000485,0.00460625,
 -0.00000347,-0.00000376,0.00787299,0.00000012,-0.00000023,0.00018593,0
 .00000019,-0.00000016,-0.00022443,-0.00000001,0.00000005,0.00002002,0.
 00000082,0.00000144,-0.00406196,0.00000054,0.00000017,0.00054028,0.000
 00056,0.00000011,0.00021969,0.00000051,-0.00000052,-0.00019814,0.00000
 065,0.00000030,-0.00104937,-0.00000104,0.00000059,0.00041205,0.0001249
 3,-0.00005625,0.02740684,-0.00286848,0.00406915,-0.00000461,0.00023522
 ,0.00074383,0.00000095,0.00150520,0.00085533,-0.00000357,0.00537384,0.
 00224549,0.00000099,-0.27955136,-0.12311485,-0.00017850,-0.01845483,-0
 .01473842,-0.00001733,-0.00227966,-0.00193981,0.00000141,0.00092653,0.
 00021231,0.00000019,0.00141263,-0.00076174,0.00000037,0.00021040,0.000
 26333,0.00000019,0.00001213,0.00005247,0.00000011,0.00002193,-0.000087
 97,-0.00000002,-0.00000114,0.00002015,-0.00000003,-0.00087856,-0.00086
 597,-0.00000108,-0.00000165,-0.00009104,0.00000062,0.00055214,-0.00037
 255,0.00000290,0.29317978,0.00369717,-0.00132718,0.00000039,0.00088413
 ,-0.00100134,0.00000052,0.00088362,-0.00540613,-0.00000292,-0.02735937
 ,-0.00968728,-0.00002077,-0.12529708,-0.12849015,-0.00009919,0.0136948
 7,0.01223153,0.00001097,0.00131380,0.00180980,0.00000171,-0.00090973,0
 .00006347,-0.00000073,0.00002771,-0.00384314,-0.00000004,-0.00153218,0
 .00069001,-0.00000103,-0.00024355,-0.00084991,-0.00000005,0.00030225,-
 0.00018440,0.00000027,0.00000577,0.00006393,0.00000002,0.00084330,0.00
 063589,0.00000055,-0.00008325,0.00000340,0.00000018,0.00038254,0.00112
 296,0.00000160,0.13341217,0.13422047,-0.00000446,0.00000065,0.00665761
 ,0.00000117,-0.00000004,-0.00106638,-0.00000451,-0.00000275,0.00785908
 ,-0.00000652,-0.00000133,0.00469616,-0.00017666,-0.00009921,-0.0406072
 8,-0.00001218,-0.00000532,0.00360510,0.00000137,-0.00000126,-0.0041032
 8,-0.00000008,0.00000049,0.00060357,0.00000096,-0.00000061,0.00022226,
 -0.00000016,0.00000022,0.00014203,0.00000009,-0.00000012,-0.00022714,0
 .00000005,-0.00000006,0.00002043,-0.00000002,0.00000002,0.00004266,-0.
 00000058,-0.00000052,0.00047333,0.00000064,0.00000017,-0.00104216,0.00
 000325,0.00000114,-0.00442165,0.00019715,0.00010856,0.02728907,0.00055
 045,-0.00126276,-0.00000026,-0.00048437,-0.00019303,-0.00000036,-0.000
 12856,0.00030600,0.00000005,0.00035455,0.00012739,0.00000012,-0.000453
 96,0.00081459,-0.00000003,-0.00621708,-0.00109514,-0.00000432,0.006767
 76,-0.05580871,0.00000537,0.00084019,0.00777499,0.00000183,-0.05764542
 ,0.09507844,-0.00001954,0.00009197,-0.00037331,0.00000003,0.00004567,0
 .00016534,0.00000004,-0.00011786,0.00019583,-0.00000007,0.00001887,-0.
 00009068,0.,-0.00009577,-0.00008877,-0.00000011,0.00001924,-0.00011435
 ,0.00000003,0.00000041,0.00000974,-0.00000002,0.00060437,-0.00001968,0
 .00000049,0.05585102,0.00031161,-0.00066017,0.00000028,-0.00045885,0.0
 0017288,-0.00000033,0.00011094,0.00030083,0.00000015,0.00009893,-0.000
 03419,0.00000006,-0.00015645,0.00091447,0.00000002,-0.00273618,0.00178
 397,0.00000082,-0.00935852,-0.03183471,-0.00000506,0.00921044,0.002435
 84,0.00000544,0.04842331,-0.49335249,0.00006460,0.00008714,-0.00061426
 ,-0.00000007,0.00009002,0.00027459,0.00000009,-0.00015850,0.00030952,-
 0.00000010,0.00002008,-0.00014889,0.00000001,-0.00014430,-0.00007549,-
 0.00000006,0.00003027,-0.00004640,-0.00000002,-0.00001393,0.00000266,0
 .,0.00010782,-0.00000218,-0.00000002,-0.04545932,0.52052737,-0.0000002
 3,-0.00000019,0.00048003,0.00000032,-0.00000019,-0.00037472,-0.0000002
 7,-0.00000001,-0.00000980,0.00000004,0.00000030,0.00013255,0.00000011,
 -0.00000018,-0.00022003,-0.00000496,-0.00000345,0.00457451,0.00000289,
 -0.00001356,0.00421602,0.00000391,0.00000206,-0.00579339,-0.00001872,0
 .00008115,-0.01556234,0.00000005,-0.00000009,-0.00001204,-0.00000001,0
 .00000006,-0.00000162,-0.00000004,0.00000009,-0.00001003,0.,-0.0000000
 4,0.00001211,-0.00000013,-0.00000010,0.00017806,0.00000002,-0.00000002
 ,-0.00005439,-0.00000001,0.00000002,0.00002763,0.00000027,-0.00000003,
 -0.00013708,0.00001676,-0.00006582,0.01255537,0.00001690,-0.00001686,0
 .00000003,0.00002118,0.00003779,0.00000002,0.00012428,-0.00003143,-0.0
 0000003,-0.00000534,0.00006683,0.00000005,-0.00000905,0.00001636,0.000
 00003,0.00001695,0.00009470,0.00000003,-0.00002275,-0.00017842,-0.0000
 0005,-0.00002048,0.00008276,0.,0.00004948,0.00007096,0.00000003,-0.000
 09531,-0.00228203,-0.00000007,0.00047375,0.00178780,-0.00000033,0.0044
 9098,-0.00031061,0.00000319,-0.31574732,0.07436049,-0.00018470,0.00000
 055,0.00000092,0.,0.00003161,-0.00003237,0.,-0.00004864,0.00001979,-0.
 00000008,0.00000170,0.00000965,0.,-0.00000844,-0.00001304,0.,0.3333661
 6,0.00015590,-0.00006950,0.00000003,-0.00028803,-0.00049192,-0.0000003
 2,0.00183453,-0.00027990,0.00000141,0.00013710,-0.00003048,0.00000004,
 -0.00008994,0.00004005,-0.00000007,0.00003769,-0.00009274,0.,0.0000345
 3,0.00019889,0.00000006,0.00001312,-0.00008721,0.,-0.00006232,-0.00007
 730,-0.00000003,-0.00621026,-0.00632785,-0.00000514,0.00063149,0.00278
 186,0.00000015,0.04168222,-0.02650640,0.00003103,0.06000079,-0.0621294
 4,0.00004200,-0.00000919,-0.00005251,-0.00000002,0.00000152,0.00001849
 ,0.00000002,-0.00000947,-0.00006112,0.00000002,-0.00000056,-0.00002629
 ,0.,0.00000913,0.00001139,0.,-0.07909185,0.08397449,0.00000003,0.,-0.0
 0003983,0.00000002,0.00000005,0.00000262,-0.00000016,-0.00000004,0.000
 22726,0.00000003,0.00000005,-0.00003030,0.00000002,0.00000002,-0.00003
 251,0.,0.00000005,0.00001000,-0.00000002,-0.00000012,0.00001290,-0.000
 00001,0.00000006,-0.00000410,0.00000004,0.00000005,-0.00000519,-0.0000
 0005,-0.00000148,0.00023167,-0.00000016,0.00000101,0.00071339,0.000003
 42,-0.00000031,0.00002129,-0.00018474,0.00005274,-0.05353918,0.,0.,-0.
 00000130,0.00000001,-0.00000003,0.00001368,-0.00000008,0.00000001,0.00
 006439,0.,0.,0.00000356,0.,-0.00000001,0.00000316,0.00020119,-0.000056
 20,0.04740447,0.00002153,0.00001289,-0.00000965,0.00001440,-0.00002410
 ,-0.00001862,-0.00006143,-0.00011860,0.00059938,-0.00000824,0.00001792
 ,-0.00003504,0.00000535,-0.00008072,-0.00003576,-0.00004073,0.00001378
 ,0.00000587,0.00000793,0.00003741,0.00000014,-0.00000034,-0.00002333,-
 0.00000177,-0.00001446,-0.00002490,-0.00000382,0.00178800,0.00206609,-
 0.00097787,-0.00050202,-0.00054694,-0.00024510,0.00132845,-0.00193635,
 -0.00306377,-0.11262276,-0.04107358,0.10815988,0.00000054,0.00000036,-
 0.00000099,-0.00001537,0.00003923,-0.00000381,0.00001345,0.00002597,0.
 00002870,-0.00000010,-0.00000607,0.00000852,0.00000348,0.00000425,0.00
 000346,-0.01133504,-0.00938690,0.02525159,0.11373707,-0.00000470,-0.00
 013373,0.00007531,-0.00017991,0.00003566,-0.00006607,0.00034523,-0.000
 46695,-0.00104230,-0.00003195,-0.00013914,0.00001788,0.00005275,0.0001
 0514,-0.00004262,0.00009924,-0.00016512,-0.00000094,0.00003803,0.00028
 235,0.00001704,0.00004343,-0.00014149,-0.00000740,-0.00006803,-0.00010
 238,-0.00000294,-0.00894140,0.00140448,0.00136839,0.00296197,0.0013926
 7,-0.00002425,-0.01263421,-0.03241087,0.03039385,-0.03558339,-0.072559
 32,0.06273381,-0.00000122,-0.00001852,0.00001039,0.00001787,0.00000634
 ,-0.00001432,0.00015471,0.00010325,0.00008348,-0.00000457,-0.00001172,
 -0.00000213,0.00001215,0.00001762,0.00000048,0.00270997,0.00460386,-0.
 00801448,0.04556147,0.09257749,-0.00001226,0.00005219,0.00000988,0.000
 04806,-0.00003439,-0.00000410,-0.00026759,0.00004594,-0.00042750,0.000
 03611,-0.00004844,0.00000813,-0.00001443,-0.00003369,0.00001599,-0.000
 03426,-0.00002726,-0.00000205,0.00000322,0.00000620,0.00000255,-0.0000
 0358,0.00000454,0.00000043,-0.00000707,-0.00000237,0.00000201,0.003222
 41,0.00014067,0.00057188,-0.00063228,-0.00184343,0.00022105,-0.0036564
 5,0.00313174,0.00671702,0.10571252,0.07104036,-0.23740105,0.00000142,0
 .00000189,-0.00000022,-0.00001452,0.00001627,-0.00000235,-0.00002475,-
 0.00002893,-0.00000591,-0.00000022,-0.00000646,-0.00000493,-0.00000003
 ,-0.00000146,-0.00000200,-0.00161715,-0.00192065,0.00248859,-0.1162202
 7,-0.07799199,0.24842031,0.00002152,0.00001294,0.00000966,0.00001441,-
 0.00002415,0.00001862,-0.00006112,-0.00011830,-0.00059837,-0.00000816,
 0.00001784,0.00003500,0.00000526,-0.00008082,0.00003567,-0.00004079,0.
 00001376,-0.00000593,0.00000795,0.00003743,-0.00000013,-0.00000035,-0.
 00002333,0.00000177,-0.00001448,-0.00002492,0.00000380,0.00179145,0.00
 206637,0.00097936,-0.00050205,-0.00055030,0.00024367,0.00131890,-0.001
 93088,0.00305581,-0.11232023,-0.04097112,-0.10798412,0.00000054,0.0000
 0036,0.00000100,-0.00001540,0.00003926,0.00000381,0.00001344,0.0000259
 4,-0.00002866,-0.00000009,-0.00000608,-0.00000851,0.00000348,0.0000042
 5,-0.00000345,-0.01130116,-0.00938951,-0.02527112,0.00768029,0.0054525
 5,0.01348111,0.11340660,-0.00000467,-0.00013371,-0.00007546,-0.0001799
 4,0.00003574,0.00006589,0.00034374,-0.00046766,0.00104244,-0.00003199,
 -0.00013928,-0.00001792,0.00005271,0.00010522,0.00004271,0.00009927,-0
 .00016518,0.00000098,0.00003805,0.00028241,-0.00001690,0.00004343,-0.0
 0014151,0.00000744,-0.00006804,-0.00010239,0.00000288,-0.00893813,0.00
 140497,-0.00138080,0.00296092,0.00139240,0.00002753,-0.01259218,-0.032
 41102,-0.03041176,-0.03549164,-0.07255483,-0.06277938,-0.00000120,-0.0
 0001851,-0.00001040,0.00001785,0.00000633,0.00001435,0.00015483,0.0001
 0325,-0.00008326,-0.00000458,-0.00001172,0.00000212,0.00001215,0.00001
 762,-0.00000048,0.00269859,0.00460363,0.00801860,0.00544211,0.00562039
 ,0.00749926,0.04544871,0.09257382,0.00001229,-0.00005218,0.00000987,-0
 .00004807,0.00003437,-0.00000413,0.00026790,-0.00004590,-0.00042774,-0
 .00003606,0.00004846,0.00000815,0.00001441,0.00003353,0.00001609,0.000
 03419,0.00002729,-0.00000202,-0.00000321,-0.00000611,0.00000255,0.0000
 0358,-0.00000459,0.00000044,0.00000704,0.00000232,0.00000203,-0.003221
 16,-0.00013793,0.00056913,0.00063154,0.00184291,0.00022196,0.00364904,
 -0.00313436,0.00672574,-0.10553737,-0.07109516,-0.23770697,-0.00000142
 ,-0.00000189,-0.00000022,0.00001450,-0.00001621,-0.00000233,0.00002477
 ,0.00002897,-0.00000592,0.00000023,0.00000644,-0.00000494,0.00000004,0
 .00000147,-0.00000200,0.00159784,0.00190764,0.00245544,-0.01344107,-0.
 00749119,-0.02060774,0.11603101,0.07805214,0.24875262\\0.00003511,-0.0
 0001018,-0.00000489,0.00002887,0.00001140,0.00000449,-0.00004295,0.000
 04190,0.00002386,0.00005526,0.00023130,0.00000482,0.00005873,-0.000248
 94,-0.00000483,-0.00008672,0.00001160,-0.00003347,-0.00009796,0.000088
 39,0.00011168,0.00005702,-0.00004205,-0.00004236,0.00003109,0.00002384
 ,-0.00003319,-0.00011190,-0.00013427,-0.00008297,0.00008343,0.00000186
 ,0.00003197,0.00006083,-0.00003444,0.00002457,-0.00001978,0.00011115,0
 .00000051,0.00000788,0.00000912,-0.00000024,0.00000106,-0.00001896,0.0
 0000032,-0.00000705,-0.00002543,0.00000048,-0.00000808,0.00002619,-0.0
 0000051,-0.00000747,-0.00004323,-0.00000060,-0.00000852,0.00001692,0.0
 0000054,-0.00001405,-0.00000926,0.00000849,-0.00001481,-0.00000690,-0.
 00000866\\\@
 The archive entry for this job was punched.


 LIVE PURE, SPEAK TRUE, RIGHT WRONG, FOLLOW THE KING...
 ELSE, WHEREFORE BORN......
           IDYLLS OF THE KING, TENNYSON
 Job cpu time:       1 days 10 hours  7 minutes 37.3 seconds.
 Elapsed time:       0 days  0 hours 51 minutes 12.5 seconds.
 File lengths (MBytes):  RWF=    809 Int=      0 D2E=      0 Chk=     48 Scr=      1
 Normal termination of Gaussian 16 at Tue Sep  6 17:16:08 2022.
