 Entering Gaussian System, Link 0=g16
 Initial command:
 /usr/local/gaussian16c01/g16/l1.exe "/scr/dhuang/Gau-43678.inp" -scrdir="/scr/dhuang/"
 Entering Link 1 = /usr/local/gaussian16c01/g16/l1.exe PID=     43681.
  
 Copyright (c) 1988-2019, Gaussian, Inc.  All Rights Reserved.
  
 This is part of the Gaussian(R) 16 program.  It is based on
 the Gaussian(R) 09 system (copyright 2009, Gaussian, Inc.),
 the Gaussian(R) 03 system (copyright 2003, Gaussian, Inc.),
 the Gaussian(R) 98 system (copyright 1998, Gaussian, Inc.),
 the Gaussian(R) 94 system (copyright 1995, Gaussian, Inc.),
 the Gaussian 92(TM) system (copyright 1992, Gaussian, Inc.),
 the Gaussian 90(TM) system (copyright 1990, Gaussian, Inc.),
 the Gaussian 88(TM) system (copyright 1988, Gaussian, Inc.),
 the Gaussian 86(TM) system (copyright 1986, Carnegie Mellon
 University), and the Gaussian 82(TM) system (copyright 1983,
 Carnegie Mellon University). Gaussian is a federally registered
 trademark of Gaussian, Inc.
  
 This software contains proprietary and confidential information,
 including trade secrets, belonging to Gaussian, Inc.
  
 This software is provided under written license and may be
 used, copied, transmitted, or stored only in accord with that
 written license.
  
 The following legend is applicable only to US Government
 contracts under FAR:
  
                    RESTRICTED RIGHTS LEGEND
  
 Use, reproduction and disclosure by the US Government is
 subject to restrictions as set forth in subparagraphs (a)
 and (c) of the Commercial Computer Software - Restricted
 Rights clause in FAR 52.227-19.
  
 Gaussian, Inc.
 340 Quinnipiac St., Bldg. 40, Wallingford CT 06492
  
  
 ---------------------------------------------------------------
 Warning -- This program may not be used in any manner that
 competes with the business of Gaussian, Inc. or will provide
 assistance to any competitor of Gaussian, Inc.  The licensee
 of this program is prohibited from giving any competitor of
 Gaussian, Inc. access to this program.  By using this program,
 the user acknowledges that Gaussian, Inc. is engaged in the
 business of creating and licensing software in the field of
 computational chemistry and represents and warrants to the
 licensee that it is not a competitor of Gaussian, Inc. and that
 it will not use this program in any manner prohibited above.
 ---------------------------------------------------------------
  

 Cite this work as:
 Gaussian 16, Revision C.01,
 M. J. Frisch, G. W. Trucks, H. B. Schlegel, G. E. Scuseria, 
 M. A. Robb, J. R. Cheeseman, G. Scalmani, V. Barone, 
 G. A. Petersson, H. Nakatsuji, X. Li, M. Caricato, A. V. Marenich, 
 J. Bloino, B. G. Janesko, R. Gomperts, B. Mennucci, H. P. Hratchian, 
 J. V. Ortiz, A. F. Izmaylov, J. L. Sonnenberg, D. Williams-Young, 
 F. Ding, F. Lipparini, F. Egidi, J. Goings, B. Peng, A. Petrone, 
 T. Henderson, D. Ranasinghe, V. G. Zakrzewski, J. Gao, N. Rega, 
 G. Zheng, W. Liang, M. Hada, M. Ehara, K. Toyota, R. Fukuda, 
 J. Hasegawa, M. Ishida, T. Nakajima, Y. Honda, O. Kitao, H. Nakai, 
 T. Vreven, K. Throssell, J. A. Montgomery, Jr., J. E. Peralta, 
 F. Ogliaro, M. J. Bearpark, J. J. Heyd, E. N. Brothers, K. N. Kudin, 
 V. N. Staroverov, T. A. Keith, R. Kobayashi, J. Normand, 
 K. Raghavachari, A. P. Rendell, J. C. Burant, S. S. Iyengar, 
 J. Tomasi, M. Cossi, J. M. Millam, M. Klene, C. Adamo, R. Cammi, 
 J. W. Ochterski, R. L. Martin, K. Morokuma, O. Farkas, 
 J. B. Foresman, and D. J. Fox, Gaussian, Inc., Wallingford CT, 2019.
 
 ******************************************
 Gaussian 16:  ES64L-G16RevC.01  3-Jul-2019
                 5-Sep-2022 
 ******************************************
 %nprocshared=40
 Will use up to   40 processors via shared memory.
 %mem=10000MW
 %chk=4-F.chk
 ------------------------------------
 # opt freq M062x/aug-cc-pvtz pop=nbo
 ------------------------------------
 1/18=20,19=15,26=3,38=1/1,3;
 2/9=110,12=2,17=6,18=5,40=1/2;
 3/5=16,6=1,7=10,11=2,25=1,30=1,71=1,74=-55/1,2,3;
 4//1;
 5/5=2,38=5/2;
 6/7=2,8=2,9=2,10=2,28=1,40=1/1,7;
 7//1,2,3,16;
 1/18=20,19=15,26=3/3(2);
 2/9=110/2;
 99//99;
 2/9=110/2;
 3/5=16,6=1,7=10,11=2,25=1,30=1,71=1,74=-55/1,2,3;
 4/5=5,16=3,69=1/1;
 5/5=2,38=5/2;
 7//1,2,3,16;
 1/18=20,19=15,26=3/3(-5);
 2/9=110/2;
 6/7=2,8=2,9=2,10=2,19=2,28=1,40=1/1,7;
 99/9=1/99;
 ----------------
 4-F_benzoic-acid
 ----------------
 Symbolic Z-matrix:
 Charge =  0 Multiplicity = 1
 C                    -1.1527   -0.1907   -0.0007 
 C                    -1.1434   -1.5335   -0.001 
 C                     0.0167   -2.2069   -0.0004 
 C                     1.1687   -1.5197    0.0006 
 C                     1.161    -0.177     0.001 
 C                     0.0004    0.5059    0.0003 
 F                     0.0252   -3.5302   -0.0009 
 C                     0.011     1.871     0.0006 
 O                    -1.0022    2.5376   -0.0002 
 O                     1.1629    2.587     0.0018 
 H                    -2.1359    0.3086   -0.0012 
 H                    -2.0954   -2.0906   -0.0019 
 H                     2.1276   -2.0646    0.0011 
 H                     2.1359    0.3384    0.0019 
 H                     0.934     3.5302    0.0015 
 

 GradGradGradGradGradGradGradGradGradGradGradGradGradGradGradGradGradGrad
 Berny optimization.
 Initialization pass.
                           ----------------------------
                           !    Initial Parameters    !
                           ! (Angstroms and Degrees)  !
 --------------------------                            --------------------------
 ! Name  Definition              Value          Derivative Info.                !
 --------------------------------------------------------------------------------
 ! R1    R(1,2)                  1.3428         estimate D2E/DX2                !
 ! R2    R(1,6)                  1.3472         estimate D2E/DX2                !
 ! R3    R(1,11)                 1.1027         estimate D2E/DX2                !
 ! R4    R(2,3)                  1.3414         estimate D2E/DX2                !
 ! R5    R(2,12)                 1.103          estimate D2E/DX2                !
 ! R6    R(3,4)                  1.3414         estimate D2E/DX2                !
 ! R7    R(3,7)                  1.3233         estimate D2E/DX2                !
 ! R8    R(4,5)                  1.3427         estimate D2E/DX2                !
 ! R9    R(4,13)                 1.1029         estimate D2E/DX2                !
 ! R10   R(5,6)                  1.3466         estimate D2E/DX2                !
 ! R11   R(5,14)                 1.1028         estimate D2E/DX2                !
 ! R12   R(6,8)                  1.3651         estimate D2E/DX2                !
 ! R13   R(8,9)                  1.2128         estimate D2E/DX2                !
 ! R14   R(8,10)                 1.3563         estimate D2E/DX2                !
 ! R15   R(10,15)                0.9706         estimate D2E/DX2                !
 ! A1    A(2,1,6)              120.7398         estimate D2E/DX2                !
 ! A2    A(2,1,11)             117.3197         estimate D2E/DX2                !
 ! A3    A(6,1,11)             121.9405         estimate D2E/DX2                !
 ! A4    A(1,2,3)              120.5306         estimate D2E/DX2                !
 ! A5    A(1,2,12)             119.9389         estimate D2E/DX2                !
 ! A6    A(3,2,12)             119.5305         estimate D2E/DX2                !
 ! A7    A(2,3,4)              119.049          estimate D2E/DX2                !
 ! A8    A(2,3,7)              120.5018         estimate D2E/DX2                !
 ! A9    A(4,3,7)              120.4492         estimate D2E/DX2                !
 ! A10   A(3,4,5)              120.4887         estimate D2E/DX2                !
 ! A11   A(3,4,13)             119.5751         estimate D2E/DX2                !
 ! A12   A(5,4,13)             119.9362         estimate D2E/DX2                !
 ! A13   A(4,5,6)              120.8012         estimate D2E/DX2                !
 ! A14   A(4,5,14)             117.5355         estimate D2E/DX2                !
 ! A15   A(6,5,14)             121.6633         estimate D2E/DX2                !
 ! A16   A(1,6,5)              118.3907         estimate D2E/DX2                !
 ! A17   A(1,6,8)              121.5815         estimate D2E/DX2                !
 ! A18   A(5,6,8)              120.0278         estimate D2E/DX2                !
 ! A19   A(6,8,9)              122.8966         estimate D2E/DX2                !
 ! A20   A(6,8,10)             122.3092         estimate D2E/DX2                !
 ! A21   A(9,8,10)             114.7942         estimate D2E/DX2                !
 ! A22   A(8,10,15)            108.2232         estimate D2E/DX2                !
 ! D1    D(6,1,2,3)             -0.0046         estimate D2E/DX2                !
 ! D2    D(6,1,2,12)          -179.9953         estimate D2E/DX2                !
 ! D3    D(11,1,2,3)          -179.9986         estimate D2E/DX2                !
 ! D4    D(11,1,2,12)            0.0107         estimate D2E/DX2                !
 ! D5    D(2,1,6,5)             -0.0005         estimate D2E/DX2                !
 ! D6    D(2,1,6,8)            179.999          estimate D2E/DX2                !
 ! D7    D(11,1,6,5)           179.9932         estimate D2E/DX2                !
 ! D8    D(11,1,6,8)            -0.0073         estimate D2E/DX2                !
 ! D9    D(1,2,3,4)              0.0046         estimate D2E/DX2                !
 ! D10   D(1,2,3,7)           -179.9898         estimate D2E/DX2                !
 ! D11   D(12,2,3,4)           179.9954         estimate D2E/DX2                !
 ! D12   D(12,2,3,7)             0.001          estimate D2E/DX2                !
 ! D13   D(2,3,4,5)              0.0003         estimate D2E/DX2                !
 ! D14   D(2,3,4,13)           180.0            estimate D2E/DX2                !
 ! D15   D(7,3,4,5)            179.9947         estimate D2E/DX2                !
 ! D16   D(7,3,4,13)            -0.0056         estimate D2E/DX2                !
 ! D17   D(3,4,5,6)             -0.0053         estimate D2E/DX2                !
 ! D18   D(3,4,5,14)           179.9957         estimate D2E/DX2                !
 ! D19   D(13,4,5,6)           179.995          estimate D2E/DX2                !
 ! D20   D(13,4,5,14)           -0.004          estimate D2E/DX2                !
 ! D21   D(4,5,6,1)              0.0054         estimate D2E/DX2                !
 ! D22   D(4,5,6,8)           -179.9941         estimate D2E/DX2                !
 ! D23   D(14,5,6,1)          -179.9957         estimate D2E/DX2                !
 ! D24   D(14,5,6,8)             0.0048         estimate D2E/DX2                !
 ! D25   D(1,6,8,9)             -0.011          estimate D2E/DX2                !
 ! D26   D(1,6,8,10)           179.9902         estimate D2E/DX2                !
 ! D27   D(5,6,8,9)            179.9885         estimate D2E/DX2                !
 ! D28   D(5,6,8,10)            -0.0103         estimate D2E/DX2                !
 ! D29   D(6,8,10,15)          179.9818         estimate D2E/DX2                !
 ! D30   D(9,8,10,15)           -0.0171         estimate D2E/DX2                !
 --------------------------------------------------------------------------------
 Trust Radius=3.00D-01 FncErr=1.00D-07 GrdErr=1.00D-06 EigMax=2.50D+02 EigMin=1.00D-04
 Number of steps in this run=     77 maximum allowed number of steps=    100.
 GradGradGradGradGradGradGradGradGradGradGradGradGradGradGradGradGradGrad

                          Input orientation:                          
 ---------------------------------------------------------------------
 Center     Atomic      Atomic             Coordinates (Angstroms)
 Number     Number       Type             X           Y           Z
 ---------------------------------------------------------------------
      1          6           0       -1.152700   -0.190700   -0.000700
      2          6           0       -1.143400   -1.533500   -0.001000
      3          6           0        0.016700   -2.206900   -0.000400
      4          6           0        1.168700   -1.519700    0.000600
      5          6           0        1.161000   -0.177000    0.001000
      6          6           0        0.000400    0.505900    0.000300
      7          9           0        0.025200   -3.530200   -0.000900
      8          6           0        0.011000    1.871000    0.000600
      9          8           0       -1.002200    2.537600   -0.000200
     10          8           0        1.162900    2.587000    0.001800
     11          1           0       -2.135900    0.308600   -0.001200
     12          1           0       -2.095400   -2.090600   -0.001900
     13          1           0        2.127600   -2.064600    0.001100
     14          1           0        2.135900    0.338400    0.001900
     15          1           0        0.934000    3.530200    0.001500
 ---------------------------------------------------------------------
                    Distance matrix (angstroms):
                    1          2          3          4          5
     1  C    0.000000
     2  C    1.342832   0.000000
     3  C    2.330785   1.341380   0.000000
     4  C    2.674909   2.312142   1.341398   0.000000
     5  C    2.313741   2.674015   2.330219   1.342722   0.000000
     6  C    1.347179   2.338254   2.712849   2.338371   1.346605
     7  F    3.541145   2.313533   1.323327   2.312943   3.540338
     8  C    2.367447   3.594894   4.077904   3.582892   2.348788
     9  O    2.732448   4.073548   4.852673   4.601575   3.471093
    10  O    3.616300   4.722028   4.929022   4.106704   2.764001
    11  H    1.102716   2.092460   3.310805   3.776647   3.332471
    12  H    2.120921   1.103025   2.115300   3.313651   3.777038
    13  H    3.777813   3.313837   2.115691   1.102908   2.120695
    14  H    3.330892   3.775954   3.312034   2.094758   1.102755
    15  H    4.266078   5.473267   5.809971   5.055351   3.714143
                    6          7          8          9         10
     6  C    0.000000
     7  F    4.036176   0.000000
     8  C    1.365141   5.401219   0.000000
     9  O    2.265615   6.154165   1.212819   0.000000
    10  O    2.383776   6.222098   1.356293   2.165664   0.000000
    11  H    2.145392   4.405308   2.655236   2.500743   4.009139
    12  H    3.336794   2.563083   4.486781   4.755557   5.700568
    13  H    3.336533   2.562825   4.468662   5.565599   4.750582
    14  H    2.142060   4.406941   2.619936   3.831991   2.450088
    15  H    3.165123   7.118650   1.898651   2.175805   0.970578
                   11         12         13         14         15
    11  H    0.000000
    12  H    2.399542   0.000000
    13  H    4.879500   4.223081   0.000000
    14  H    4.271905   4.878930   2.403014   0.000000
    15  H    4.450056   6.385191   5.720705   3.410594   0.000000
 Stoichiometry    C7H5FO2
 Framework group  C1[X(C7H5FO2)]
 Deg. of freedom    39
 Full point group                 C1      NOp   1
 Largest Abelian subgroup         C1      NOp   1
 Largest concise Abelian subgroup C1      NOp   1
                         Standard orientation:                         
 ---------------------------------------------------------------------
 Center     Atomic      Atomic             Coordinates (Angstroms)
 Number     Number       Type             X           Y           Z
 ---------------------------------------------------------------------
      1          6           0       -0.079636    1.190581    0.000106
      2          6           0       -1.421724    1.145886    0.000145
      3          6           0       -2.064308   -0.031563    0.000031
      4          6           0       -1.346978   -1.165047   -0.000027
      5          6           0       -0.004947   -1.121954    0.000033
      6          6           0        0.647120    0.056245    0.000045
      7          9           0       -3.386924   -0.074944   -0.000135
      8          6           0        2.012025    0.081635   -0.000015
      9          8           0        2.651684    1.112056   -0.000212
     10          8           0        2.758142   -1.050990    0.000120
     11          1           0        0.393572    2.186602    0.000229
     12          1           0       -2.003727    2.082870    0.000116
     13          1           0       -1.866410   -2.137978   -0.000120
     14          1           0        0.535974   -2.082929    0.000055
     15          1           0        3.694980   -0.797305   -0.000248
 ---------------------------------------------------------------------
 Rotational constants (GHZ):           4.1896344           0.8091356           0.6781633
 Standard basis: Aug-CC-pVTZ (5D, 7F)
 There are   675 symmetry adapted cartesian basis functions of A   symmetry.
 There are   575 symmetry adapted basis functions of A   symmetry.
   575 basis functions,   855 primitive gaussians,   675 cartesian basis functions
    36 alpha electrons       36 beta electrons
       nuclear repulsion energy       499.1326100319 Hartrees.
 NAtoms=   15 NActive=   15 NUniq=   15 SFac= 1.00D+00 NAtFMM=   60 NAOKFM=F Big=F
 Integral buffers will be    131072 words long.
 Raffenetti 2 integral format.
 Two-electron integral symmetry is turned on.
 One-electron integrals computed using PRISM.
 NBasis=   575 RedAO= T EigKep=  1.40D-06  NBF=   575
 NBsUse=   573 1.00D-06 EigRej=  8.91D-07 NBFU=   573
 ExpMin= 2.53D-02 ExpMax= 1.95D+04 ExpMxC= 6.65D+02 IAcc=3 IRadAn=         5 AccDes= 0.00D+00
 Harris functional with IExCor= 1009 and IRadAn=       5 diagonalized for initial guess.
 HarFok:  IExCor= 1009 AccDes= 0.00D+00 IRadAn=         5 IDoV= 1 UseB2=F ITyADJ=14
 ICtDFT=  3500011 ScaDFX=  1.000000  1.000000  1.000000  1.000000
 FoFCou: FMM=F IPFlag=           0 FMFlag=      100000 FMFlg1=           0
         NFxFlg=           0 DoJE=T BraDBF=F KetDBF=T FulRan=T
         wScrn=  0.000000 ICntrl=       500 IOpCl=  0 I1Cent=   200000004 NGrid=           0
         NMat0=    1 NMatS0=      1 NMatT0=    0 NMatD0=    1 NMtDS0=    0 NMtDT0=    0
 Petite list used in FoFCou.
 Requested convergence on RMS density matrix=1.00D-08 within 128 cycles.
 Requested convergence on MAX density matrix=1.00D-06.
 Requested convergence on             energy=1.00D-06.
 No special actions if energy rises.
 SCF Done:  E(RM062X) =  -520.042476230     A.U. after   14 cycles
            NFock= 14  Conv=0.24D-08     -V/T= 2.0032

 **********************************************************************

            Population analysis using the SCF Density.

 **********************************************************************

 Orbital symmetries:
       Occupied  (A) (A) (A) (A) (A) (A) (A) (A) (A) (A) (A) (A)
                 (A) (A) (A) (A) (A) (A) (A) (A) (A) (A) (A) (A)
                 (A) (A) (A) (A) (A) (A) (A) (A) (A) (A) (A) (A)
       Virtual   (A) (A) (A) (A) (A) (A) (A) (A) (A) (A) (A) (A)
                 (A) (A) (A) (A) (A) (A) (A) (A) (A) (A) (A) (A)
                 (A) (A) (A) (A) (A) (A) (A) (A) (A) (A) (A) (A)
                 (A) (A) (A) (A) (A) (A) (A) (A) (A) (A) (A) (A)
                 (A) (A) (A) (A) (A) (A) (A) (A) (A) (A) (A) (A)
                 (A) (A) (A) (A) (A) (A) (A) (A) (A) (A) (A) (A)
                 (A) (A) (A) (A) (A) (A) (A) (A) (A) (A) (A) (A)
                 (A) (A) (A) (A) (A) (A) (A) (A) (A) (A) (A) (A)
                 (A) (A) (A) (A) (A) (A) (A) (A) (A) (A) (A) (A)
                 (A) (A) (A) (A) (A) (A) (A) (A) (A) (A) (A) (A)
                 (A) (A) (A) (A) (A) (A) (A) (A) (A) (A) (A) (A)
                 (A) (A) (A) (A) (A) (A) (A) (A) (A) (A) (A) (A)
                 (A) (A) (A) (A) (A) (A) (A) (A) (A) (A) (A) (A)
                 (A) (A) (A) (A) (A) (A) (A) (A) (A) (A) (A) (A)
                 (A) (A) (A) (A) (A) (A) (A) (A) (A) (A) (A) (A)
                 (A) (A) (A) (A) (A) (A) (A) (A) (A) (A) (A) (A)
                 (A) (A) (A) (A) (A) (A) (A) (A) (A) (A) (A) (A)
                 (A) (A) (A) (A) (A) (A) (A) (A) (A) (A) (A) (A)
                 (A) (A) (A) (A) (A) (A) (A) (A) (A) (A) (A) (A)
                 (A) (A) (A) (A) (A) (A) (A) (A) (A) (A) (A) (A)
                 (A) (A) (A) (A) (A) (A) (A) (A) (A) (A) (A) (A)
                 (A) (A) (A) (A) (A) (A) (A) (A) (A) (A) (A) (A)
                 (A) (A) (A) (A) (A) (A) (A) (A) (A) (A) (A) (A)
                 (A) (A) (A) (A) (A) (A) (A) (A) (A) (A) (A) (A)
                 (A) (A) (A) (A) (A) (A) (A) (A) (A) (A) (A) (A)
                 (A) (A) (A) (A) (A) (A) (A) (A) (A) (A) (A) (A)
                 (A) (A) (A) (A) (A) (A) (A) (A) (A) (A) (A) (A)
                 (A) (A) (A) (A) (A) (A) (A) (A) (A) (A) (A) (A)
                 (A) (A) (A) (A) (A) (A) (A) (A) (A) (A) (A) (A)
                 (A) (A) (A) (A) (A) (A) (A) (A) (A) (A) (A) (A)
                 (A) (A) (A) (A) (A) (A) (A) (A) (A) (A) (A) (A)
                 (A) (A) (A) (A) (A) (A) (A) (A) (A) (A) (A) (A)
                 (A) (A) (A) (A) (A) (A) (A) (A) (A) (A) (A) (A)
                 (A) (A) (A) (A) (A) (A) (A) (A) (A) (A) (A) (A)
                 (A) (A) (A) (A) (A) (A) (A) (A) (A) (A) (A) (A)
                 (A) (A) (A) (A) (A) (A) (A) (A) (A) (A) (A) (A)
                 (A) (A) (A) (A) (A) (A) (A) (A) (A) (A) (A) (A)
                 (A) (A) (A) (A) (A) (A) (A) (A) (A) (A) (A) (A)
                 (A) (A) (A) (A) (A) (A) (A) (A) (A) (A) (A) (A)
                 (A) (A) (A) (A) (A) (A) (A) (A) (A) (A) (A) (A)
                 (A) (A) (A) (A) (A) (A) (A) (A) (A) (A) (A) (A)
                 (A) (A) (A) (A) (A) (A) (A) (A) (A) (A) (A) (A)
                 (A) (A) (A) (A) (A) (A) (A) (A) (A) (A) (A) (A)
                 (A) (A) (A) (A) (A) (A) (A) (A) (A) (A) (A) (A)
                 (A) (A) (A) (A) (A) (A) (A) (A) (A)
 The electronic state is 1-A.
 Alpha  occ. eigenvalues --  -25.27897 -19.67036 -19.60906 -10.67470 -10.64417
 Alpha  occ. eigenvalues --  -10.56742 -10.56701 -10.55916 -10.55868 -10.55795
 Alpha  occ. eigenvalues --   -1.40401  -1.24206  -1.13256  -1.02646  -0.91496
 Alpha  occ. eigenvalues --   -0.88983  -0.78492  -0.74275  -0.69844  -0.66147
 Alpha  occ. eigenvalues --   -0.63522  -0.60508  -0.59816  -0.57284  -0.55105
 Alpha  occ. eigenvalues --   -0.53373  -0.52148  -0.50981  -0.50029  -0.47188
 Alpha  occ. eigenvalues --   -0.47170  -0.42280  -0.39996  -0.35937  -0.34751
 Alpha  occ. eigenvalues --   -0.33457
 Alpha virt. eigenvalues --   -0.03368  -0.00810   0.00212   0.00248   0.00565
 Alpha virt. eigenvalues --    0.02088   0.02831   0.02848   0.03445   0.05262
 Alpha virt. eigenvalues --    0.05864   0.05923   0.06181   0.07068   0.07850
 Alpha virt. eigenvalues --    0.08165   0.08216   0.09296   0.09342   0.09498
 Alpha virt. eigenvalues --    0.09910   0.10162   0.10172   0.11216   0.11266
 Alpha virt. eigenvalues --    0.11315   0.12594   0.12741   0.13467   0.14223
 Alpha virt. eigenvalues --    0.16163   0.16450   0.17131   0.17650   0.18548
 Alpha virt. eigenvalues --    0.19231   0.19613   0.19903   0.20376   0.20638
 Alpha virt. eigenvalues --    0.21622   0.21672   0.22508   0.22917   0.23394
 Alpha virt. eigenvalues --    0.23452   0.23645   0.24123   0.24860   0.25118
 Alpha virt. eigenvalues --    0.25720   0.25974   0.26815   0.27503   0.28416
 Alpha virt. eigenvalues --    0.28440   0.28903   0.29783   0.30574   0.31481
 Alpha virt. eigenvalues --    0.32322   0.32559   0.33228   0.33299   0.34124
 Alpha virt. eigenvalues --    0.34949   0.35371   0.35463   0.36110   0.36215
 Alpha virt. eigenvalues --    0.36447   0.36775   0.37251   0.37703   0.38335
 Alpha virt. eigenvalues --    0.38903   0.39153   0.40319   0.40976   0.41448
 Alpha virt. eigenvalues --    0.41668   0.43236   0.43787   0.44160   0.44949
 Alpha virt. eigenvalues --    0.45315   0.45344   0.46064   0.47098   0.48831
 Alpha virt. eigenvalues --    0.49013   0.49050   0.51125   0.51865   0.53101
 Alpha virt. eigenvalues --    0.53687   0.54002   0.54706   0.54938   0.55801
 Alpha virt. eigenvalues --    0.55818   0.56192   0.56395   0.58804   0.59027
 Alpha virt. eigenvalues --    0.60304   0.61721   0.62423   0.62538   0.64334
 Alpha virt. eigenvalues --    0.64361   0.65232   0.66223   0.66867   0.68164
 Alpha virt. eigenvalues --    0.68254   0.68984   0.70568   0.71386   0.71935
 Alpha virt. eigenvalues --    0.72747   0.73542   0.73649   0.74372   0.74533
 Alpha virt. eigenvalues --    0.75384   0.75533   0.75556   0.76929   0.77779
 Alpha virt. eigenvalues --    0.78022   0.78404   0.79573   0.79732   0.80200
 Alpha virt. eigenvalues --    0.80829   0.81226   0.81706   0.82980   0.83077
 Alpha virt. eigenvalues --    0.84210   0.84780   0.84971   0.85909   0.86027
 Alpha virt. eigenvalues --    0.87544   0.88478   0.88668   0.88852   0.89772
 Alpha virt. eigenvalues --    0.90143   0.91621   0.92032   0.92658   0.93775
 Alpha virt. eigenvalues --    0.94344   0.94453   0.94988   0.95445   0.96844
 Alpha virt. eigenvalues --    0.97411   0.98721   0.99413   1.00013   1.00288
 Alpha virt. eigenvalues --    1.01330   1.01476   1.03844   1.04524   1.05426
 Alpha virt. eigenvalues --    1.05514   1.05579   1.06207   1.07437   1.08567
 Alpha virt. eigenvalues --    1.09624   1.09902   1.10178   1.10738   1.11471
 Alpha virt. eigenvalues --    1.12382   1.13614   1.14521   1.14933   1.15186
 Alpha virt. eigenvalues --    1.18266   1.18617   1.18705   1.19434   1.20556
 Alpha virt. eigenvalues --    1.21322   1.22362   1.22548   1.24520   1.25018
 Alpha virt. eigenvalues --    1.25797   1.28177   1.29363   1.30417   1.31792
 Alpha virt. eigenvalues --    1.32855   1.33352   1.33780   1.34147   1.35176
 Alpha virt. eigenvalues --    1.37208   1.37758   1.38282   1.40843   1.41897
 Alpha virt. eigenvalues --    1.43586   1.45345   1.45861   1.46511   1.46744
 Alpha virt. eigenvalues --    1.49724   1.50113   1.50147   1.50556   1.51498
 Alpha virt. eigenvalues --    1.51770   1.53247   1.53590   1.54520   1.55180
 Alpha virt. eigenvalues --    1.57936   1.60975   1.61521   1.61977   1.63247
 Alpha virt. eigenvalues --    1.64554   1.65503   1.65544   1.66460   1.66656
 Alpha virt. eigenvalues --    1.67608   1.68257   1.69148   1.70661   1.71520
 Alpha virt. eigenvalues --    1.74241   1.74759   1.77613   1.78901   1.80205
 Alpha virt. eigenvalues --    1.80344   1.80852   1.81496   1.82947   1.84861
 Alpha virt. eigenvalues --    1.85009   1.87330   1.87627   1.89201   1.89242
 Alpha virt. eigenvalues --    1.90205   1.91856   1.92952   1.93895   1.94875
 Alpha virt. eigenvalues --    1.95254   1.97723   1.98696   1.99782   2.01596
 Alpha virt. eigenvalues --    2.05264   2.06255   2.07825   2.09182   2.09194
 Alpha virt. eigenvalues --    2.10855   2.11909   2.12695   2.14458   2.14472
 Alpha virt. eigenvalues --    2.16333   2.18521   2.21617   2.22707   2.23600
 Alpha virt. eigenvalues --    2.25330   2.25527   2.29550   2.30038   2.31329
 Alpha virt. eigenvalues --    2.33176   2.35107   2.35675   2.37269   2.40002
 Alpha virt. eigenvalues --    2.41164   2.41878   2.43976   2.47048   2.47279
 Alpha virt. eigenvalues --    2.47594   2.48654   2.52284   2.55310   2.56328
 Alpha virt. eigenvalues --    2.57306   2.59581   2.62604   2.66917   2.68006
 Alpha virt. eigenvalues --    2.69055   2.70467   2.71179   2.71962   2.73494
 Alpha virt. eigenvalues --    2.76046   2.77259   2.79289   2.80231   2.82883
 Alpha virt. eigenvalues --    2.84360   2.85364   2.86099   2.89982   2.90588
 Alpha virt. eigenvalues --    2.92655   2.94232   2.94573   2.96001   2.96305
 Alpha virt. eigenvalues --    2.98488   2.98830   3.00703   3.05229   3.05423
 Alpha virt. eigenvalues --    3.06824   3.07654   3.09143   3.09866   3.11634
 Alpha virt. eigenvalues --    3.12782   3.13371   3.13574   3.14508   3.15328
 Alpha virt. eigenvalues --    3.17081   3.18698   3.20145   3.20558   3.21596
 Alpha virt. eigenvalues --    3.24317   3.26748   3.26892   3.27832   3.28501
 Alpha virt. eigenvalues --    3.31093   3.32330   3.35014   3.35826   3.36331
 Alpha virt. eigenvalues --    3.37639   3.38517   3.39344   3.43576   3.44967
 Alpha virt. eigenvalues --    3.45318   3.46562   3.47273   3.48183   3.49063
 Alpha virt. eigenvalues --    3.50604   3.52842   3.53999   3.55226   3.56307
 Alpha virt. eigenvalues --    3.56983   3.57062   3.58297   3.60458   3.60660
 Alpha virt. eigenvalues --    3.63562   3.63883   3.65060   3.66527   3.67801
 Alpha virt. eigenvalues --    3.71304   3.73565   3.75770   3.76801   3.77663
 Alpha virt. eigenvalues --    3.77971   3.80894   3.82379   3.83059   3.83450
 Alpha virt. eigenvalues --    3.85660   3.86837   3.87266   3.88526   3.90485
 Alpha virt. eigenvalues --    3.90715   3.94901   3.95080   3.96428   3.97530
 Alpha virt. eigenvalues --    3.97681   3.98331   3.99738   4.01405   4.01829
 Alpha virt. eigenvalues --    4.03813   4.05475   4.06420   4.09176   4.10777
 Alpha virt. eigenvalues --    4.12493   4.14375   4.14474   4.16248   4.18981
 Alpha virt. eigenvalues --    4.21793   4.23139   4.23209   4.24785   4.26996
 Alpha virt. eigenvalues --    4.29741   4.30439   4.31643   4.35853   4.38007
 Alpha virt. eigenvalues --    4.40817   4.41829   4.42355   4.43406   4.48703
 Alpha virt. eigenvalues --    4.50735   4.51828   4.56861   4.57078   4.59144
 Alpha virt. eigenvalues --    4.61597   4.63631   4.65258   4.66387   4.67079
 Alpha virt. eigenvalues --    4.68078   4.69645   4.74946   4.75479   4.75951
 Alpha virt. eigenvalues --    4.77807   4.78059   4.79026   4.84361   4.84928
 Alpha virt. eigenvalues --    4.86372   4.86438   4.89875   4.93283   5.00591
 Alpha virt. eigenvalues --    5.00970   5.03148   5.03248   5.04996   5.05211
 Alpha virt. eigenvalues --    5.06614   5.08167   5.13283   5.13797   5.15968
 Alpha virt. eigenvalues --    5.24359   5.27746   5.33955   5.39507   5.41577
 Alpha virt. eigenvalues --    5.45610   5.49545   5.53522   5.57111   5.73894
 Alpha virt. eigenvalues --    5.76488   5.81888   5.84255   5.88597   5.90184
 Alpha virt. eigenvalues --    5.97793   6.01865   6.09262   6.18923   6.23915
 Alpha virt. eigenvalues --    6.25760   6.29384   6.36979   6.38845   6.43259
 Alpha virt. eigenvalues --    6.45947   6.51568   6.54714   6.55018   6.62951
 Alpha virt. eigenvalues --    6.65369   6.71460   6.75170   6.79850   6.82416
 Alpha virt. eigenvalues --    6.87020   6.87425   6.91110   7.00798   7.05835
 Alpha virt. eigenvalues --    7.08097   7.10198   7.13881   7.18574   7.33135
 Alpha virt. eigenvalues --    7.40242   7.52245   7.70120   7.89132   8.04160
 Alpha virt. eigenvalues --    8.42621   8.50482   8.70522   8.74025   8.82775
 Alpha virt. eigenvalues --    8.83379   8.89079   8.99647   9.01428   9.06829
 Alpha virt. eigenvalues --    9.36012   9.38640  15.40067  15.72291  15.82922
 Alpha virt. eigenvalues --   16.95240  17.76377  18.08983  18.91078  19.95643
 Alpha virt. eigenvalues --   20.08658  20.70673
          Condensed to atoms (all electrons):
               1          2          3          4          5          6
     1  C    7.896637   0.014178   0.080317  -0.201482   0.173973  -0.810330
     2  C    0.014178   6.574816   0.015433  -0.001334  -0.248371   0.038704
     3  C    0.080317   0.015433   6.278373  -0.018415  -0.005378  -0.133369
     4  C   -0.201482  -0.001334  -0.018415   6.680160   0.035359  -0.050394
     5  C    0.173973  -0.248371  -0.005378   0.035359   7.700629  -0.604883
     6  C   -0.810330   0.038704  -0.133369  -0.050394  -0.604883   6.829819
     7  F    0.015351  -0.132242   0.175790  -0.136388  -0.002765   0.021782
     8  C   -0.414782   0.036974   0.039801   0.127580  -0.619369  -0.406847
     9  O    0.016587  -0.029127  -0.003396  -0.011087   0.054971  -0.207644
    10  O    0.027066  -0.006822  -0.000074  -0.019671   0.009828  -0.074839
    11  H    0.618962  -0.633983   0.058240   0.019533   0.033438  -0.452294
    12  H   -0.551145   0.711026  -0.608866  -0.008242   0.024758   0.002993
    13  H    0.023118  -0.018940  -0.636340   0.708067  -0.481795  -0.012955
    14  H    0.045725  -0.000660   0.081030  -0.621537   0.558960  -0.412110
    15  H   -0.020862   0.001918   0.000542   0.004507  -0.017590   0.036724
               7          8          9         10         11         12
     1  C    0.015351  -0.414782   0.016587   0.027066   0.618962  -0.551145
     2  C   -0.132242   0.036974  -0.029127  -0.006822  -0.633983   0.711026
     3  C    0.175790   0.039801  -0.003396  -0.000074   0.058240  -0.608866
     4  C   -0.136388   0.127580  -0.011087  -0.019671   0.019533  -0.008242
     5  C   -0.002765  -0.619369   0.054971   0.009828   0.033438   0.024758
     6  C    0.021782  -0.406847  -0.207644  -0.074839  -0.452294   0.002993
     7  F    9.570728   0.005588   0.000319   0.000397   0.010616  -0.004579
     8  C    0.005588   6.844347  -0.025194   0.040921   0.150094  -0.033259
     9  O    0.000319  -0.025194   9.306143  -0.100011   0.014573  -0.004831
    10  O    0.000397   0.040921  -0.100011   8.599934   0.000633  -0.000288
    11  H    0.010616   0.150094   0.014573   0.000633   1.483113  -0.404475
    12  H   -0.004579  -0.033259  -0.004831  -0.000288  -0.404475   1.514467
    13  H    0.001648  -0.008066  -0.000718  -0.004505   0.002441  -0.008571
    14  H    0.008168   0.018299   0.009497  -0.040468  -0.005313   0.001861
    15  H   -0.000021   0.061170  -0.106498   0.145792  -0.002037   0.000031
              13         14         15
     1  C    0.023118   0.045725  -0.020862
     2  C   -0.018940  -0.000660   0.001918
     3  C   -0.636340   0.081030   0.000542
     4  C    0.708067  -0.621537   0.004507
     5  C   -0.481795   0.558960  -0.017590
     6  C   -0.012955  -0.412110   0.036724
     7  F    0.001648   0.008168  -0.000021
     8  C   -0.008066   0.018299   0.061170
     9  O   -0.000718   0.009497  -0.106498
    10  O   -0.004505  -0.040468   0.145792
    11  H    0.002441  -0.005313  -0.002037
    12  H   -0.008571   0.001861   0.000031
    13  H    1.511727  -0.409688   0.000852
    14  H   -0.409688   1.602578  -0.006969
    15  H    0.000852  -0.006969   0.597892
 Mulliken charges:
               1
     1  C   -0.913314
     2  C   -0.321572
     3  C    0.676313
     4  C   -0.506655
     5  C   -0.611767
     6  C    2.235643
     7  F   -0.534393
     8  C    0.182744
     9  O   -0.913584
    10  O   -0.577894
    11  H    0.106459
    12  H    0.369119
    13  H    0.333725
    14  H    0.170625
    15  H    0.304549
 Sum of Mulliken charges =   0.00000
 Mulliken charges with hydrogens summed into heavy atoms:
               1
     1  C   -0.806855
     2  C    0.047548
     3  C    0.676313
     4  C   -0.172930
     5  C   -0.441142
     6  C    2.235643
     7  F   -0.534393
     8  C    0.182744
     9  O   -0.913584
    10  O   -0.273345
 Electronic spatial extent (au):  <R**2>=           1507.9271
 Charge=              0.0000 electrons
 Dipole moment (field-independent basis, Debye):
    X=             -0.6760    Y=             -1.2342    Z=             -0.0001  Tot=              1.4072
 Quadrupole moment (field-independent basis, Debye-Ang):
   XX=            -58.8676   YY=            -53.3703   ZZ=            -57.3397
   XY=             -5.6190   XZ=             -0.0014   YZ=              0.0017
 Traceless Quadrupole moment (field-independent basis, Debye-Ang):
   XX=             -2.3418   YY=              3.1556   ZZ=             -0.8138
   XY=             -5.6190   XZ=             -0.0014   YZ=              0.0017
 Octapole moment (field-independent basis, Debye-Ang**2):
  XXX=             36.8253  YYY=             -1.4831  ZZZ=             -0.0023  XYY=            -18.6708
  XXY=            -19.5336  XXZ=             -0.0052  XZZ=             -0.1608  YZZ=             -0.0943
  YYZ=              0.0003  XYZ=              0.0040
 Hexadecapole moment (field-independent basis, Debye-Ang**3):
 XXXX=          -1286.3620 YYYY=           -344.9374 ZZZZ=            -57.4906 XXXY=            -83.8256
 XXXZ=             -0.0265 YYYX=             -5.2081 YYYZ=              0.0037 ZZZX=              0.0026
 ZZZY=             -0.0009 XXYY=           -299.9831 XXZZ=           -235.5852 YYZZ=            -78.0895
 XXYZ=              0.0138 YYXZ=              0.0020 ZZXY=              0.4074
 N-N= 4.991326100319D+02 E-N=-2.217815126200D+03  KE= 5.184077363823D+02
 ******************************Gaussian NBO Version 3.1******************************
             N A T U R A L   A T O M I C   O R B I T A L   A N D
          N A T U R A L   B O N D   O R B I T A L   A N A L Y S I S
 ******************************Gaussian NBO Version 3.1******************************
       /RESON  / : Allow strongly delocalized NBO set

 Analyzing the SCF density

 Job title: 4-F_benzoic-acid                                                

 Storage needed:    994295 in NPA,   1324496 in NBO (********** available)
 GSVD:  LWork=       -7209 too small for GESVD, short by      679196 words or      679196 for optimal perf.


 NATURAL POPULATIONS:  Natural atomic orbital occupancies 
                                                          
   NAO  Atom  No  lang   Type(AO)    Occupancy      Energy
 ----------------------------------------------------------
     1    C    1  S      Cor( 1S)     1.99911     -10.39861
     2    C    1  S      Val( 2S)     0.94329      -0.19624
     3    C    1  S      Ryd( 4S)     0.00152       1.89859
     4    C    1  S      Ryd( 5S)     0.00011       2.85499
     5    C    1  S      Ryd( 3S)     0.00002       1.74512
     6    C    1  px     Val( 2p)     1.06481      -0.07422
     7    C    1  px     Ryd( 5p)     0.00374       1.87240
     8    C    1  px     Ryd( 4p)     0.00008       1.86571
     9    C    1  px     Ryd( 3p)     0.00006       1.23136
    10    C    1  py     Val( 2p)     1.15058      -0.08217
    11    C    1  py     Ryd( 4p)     0.00467       1.81165
    12    C    1  py     Ryd( 5p)     0.00006       1.91298
    13    C    1  py     Ryd( 3p)     0.00004       1.53602
    14    C    1  pz     Val( 2p)     0.92747      -0.13000
    15    C    1  pz     Ryd( 4p)     0.00058       1.07714
    16    C    1  pz     Ryd( 5p)     0.00004       1.28439
    17    C    1  pz     Ryd( 3p)     0.00003       0.96786
    18    C    1  dxy    Ryd( 4d)     0.00166       2.91445
    19    C    1  dxy    Ryd( 5d)     0.00021       3.91317
    20    C    1  dxy    Ryd( 3d)     0.00007       2.50749
    21    C    1  dxz    Ryd( 3d)     0.00070       1.52893
    22    C    1  dxz    Ryd( 5d)     0.00001       3.06140
    23    C    1  dxz    Ryd( 4d)     0.00004       1.60190
    24    C    1  dyz    Ryd( 4d)     0.00032       1.47599
    25    C    1  dyz    Ryd( 5d)     0.00006       3.09947
    26    C    1  dyz    Ryd( 3d)     0.00003       1.30990
    27    C    1  dx2y2  Ryd( 4d)     0.00185       3.39154
    28    C    1  dx2y2  Ryd( 5d)     0.00025       4.12965
    29    C    1  dx2y2  Ryd( 3d)     0.00008       2.39972
    30    C    1  dz2    Ryd( 3d)     0.00088       1.99571
    31    C    1  dz2    Ryd( 4d)     0.00010       3.70203
    32    C    1  dz2    Ryd( 5d)     0.00009       3.80920
    33    C    1  f(0)   Ryd( 5f)     0.00011       3.43248
    34    C    1  f(0)   Ryd( 4f)     0.00003       2.22063
    35    C    1  f(C1)  Ryd( 5f)     0.00029       3.77052
    36    C    1  f(C1)  Ryd( 4f)     0.00003       3.18750
    37    C    1  f(S1)  Ryd( 5f)     0.00022       3.64687
    38    C    1  f(S1)  Ryd( 4f)     0.00003       2.83362
    39    C    1  f(C2)  Ryd( 5f)     0.00001       3.53864
    40    C    1  f(C2)  Ryd( 4f)     0.00004       2.42836
    41    C    1  f(S2)  Ryd( 5f)     0.00002       3.56945
    42    C    1  f(S2)  Ryd( 4f)     0.00001       2.21204
    43    C    1  f(C3)  Ryd( 4f)     0.00014       4.22013
    44    C    1  f(C3)  Ryd( 5f)     0.00004       6.04546
    45    C    1  f(S3)  Ryd( 5f)     0.00009       4.38480
    46    C    1  f(S3)  Ryd( 4f)     0.00010       3.97455
 
    47    C    2  S      Cor( 1S)     1.99902     -10.39286
    48    C    2  S      Val( 2S)     0.96132      -0.21198
    49    C    2  S      Ryd( 4S)     0.00146       1.84417
    50    C    2  S      Ryd( 5S)     0.00008       2.92496
    51    C    2  S      Ryd( 3S)     0.00002       1.69037
    52    C    2  px     Val( 2p)     1.11567      -0.09902
    53    C    2  px     Ryd( 5p)     0.00426       1.77879
    54    C    2  px     Ryd( 3p)     0.00014       1.36078
    55    C    2  px     Ryd( 4p)     0.00004       1.38899
    56    C    2  py     Val( 2p)     1.14431      -0.10571
    57    C    2  py     Ryd( 5p)     0.00333       1.82943
    58    C    2  py     Ryd( 4p)     0.00003       1.65825
    59    C    2  py     Ryd( 3p)     0.00005       1.59513
    60    C    2  pz     Val( 2p)     1.03631      -0.14457
    61    C    2  pz     Ryd( 5p)     0.00071       1.07112
    62    C    2  pz     Ryd( 3p)     0.00001       1.06306
    63    C    2  pz     Ryd( 4p)     0.00004       1.06780
    64    C    2  dxy    Ryd( 3d)     0.00258       2.27012
    65    C    2  dxy    Ryd( 5d)     0.00019       3.69037
    66    C    2  dxy    Ryd( 4d)     0.00007       2.83786
    67    C    2  dxz    Ryd( 3d)     0.00033       1.30234
    68    C    2  dxz    Ryd( 5d)     0.00002       3.11129
    69    C    2  dxz    Ryd( 4d)     0.00002       1.43172
    70    C    2  dyz    Ryd( 3d)     0.00074       1.27721
    71    C    2  dyz    Ryd( 5d)     0.00003       3.15306
    72    C    2  dyz    Ryd( 4d)     0.00003       1.30430
    73    C    2  dx2y2  Ryd( 4d)     0.00230       2.98513
    74    C    2  dx2y2  Ryd( 5d)     0.00020       3.89453
    75    C    2  dx2y2  Ryd( 3d)     0.00007       1.86495
    76    C    2  dz2    Ryd( 3d)     0.00101       1.76062
    77    C    2  dz2    Ryd( 5d)     0.00011       3.98886
    78    C    2  dz2    Ryd( 4d)     0.00008       3.25156
    79    C    2  f(0)   Ryd( 5f)     0.00014       3.49710
    80    C    2  f(0)   Ryd( 4f)     0.00001       2.00195
    81    C    2  f(C1)  Ryd( 5f)     0.00029       3.74943
    82    C    2  f(C1)  Ryd( 4f)     0.00002       2.68927
    83    C    2  f(S1)  Ryd( 5f)     0.00025       3.66560
    84    C    2  f(S1)  Ryd( 4f)     0.00003       2.62937
    85    C    2  f(C2)  Ryd( 5f)     0.00001       3.59211
    86    C    2  f(C2)  Ryd( 4f)     0.00004       2.16847
    87    C    2  f(S2)  Ryd( 5f)     0.00001       3.66425
    88    C    2  f(S2)  Ryd( 4f)     0.00001       2.15851
    89    C    2  f(C3)  Ryd( 4f)     0.00018       4.25428
    90    C    2  f(C3)  Ryd( 5f)     0.00006       5.38216
    91    C    2  f(S3)  Ryd( 5f)     0.00004       4.34248
    92    C    2  f(S3)  Ryd( 4f)     0.00014       3.63960
 
    93    C    3  S      Cor( 1S)     1.99828     -10.49541
    94    C    3  S      Val( 2S)     0.83699      -0.15719
    95    C    3  S      Ryd( 4S)     0.00179       2.39848
    96    C    3  S      Ryd( 3S)     0.00008       2.05336
    97    C    3  S      Ryd( 5S)     0.00002       2.85036
    98    C    3  px     Val( 2p)     0.67831      -0.05845
    99    C    3  px     Ryd( 4p)     0.00793       1.56276
   100    C    3  px     Ryd( 5p)     0.00005       1.99100
   101    C    3  px     Ryd( 3p)     0.00013       1.12499
   102    C    3  py     Val( 2p)     1.08670      -0.09698
   103    C    3  py     Ryd( 5p)     0.00380       1.76729
   104    C    3  py     Ryd( 4p)     0.00022       1.62028
   105    C    3  py     Ryd( 3p)     0.00004       0.89887
   106    C    3  pz     Val( 2p)     0.94129      -0.14859
   107    C    3  pz     Ryd( 4p)     0.00083       1.10069
   108    C    3  pz     Ryd( 5p)     0.00036       1.36617
   109    C    3  pz     Ryd( 3p)     0.00004       0.56747
   110    C    3  dxy    Ryd( 5d)     0.00238       3.50694
   111    C    3  dxy    Ryd( 3d)     0.00007       3.29849
   112    C    3  dxy    Ryd( 4d)     0.00006       3.36498
   113    C    3  dxz    Ryd( 3d)     0.00278       1.68527
   114    C    3  dxz    Ryd( 5d)     0.00004       2.58466
   115    C    3  dxz    Ryd( 4d)     0.00003       1.77881
   116    C    3  dyz    Ryd( 3d)     0.00090       1.71421
   117    C    3  dyz    Ryd( 5d)     0.00001       2.38080
   118    C    3  dyz    Ryd( 4d)     0.00000       1.77807
   119    C    3  dx2y2  Ryd( 3d)     0.00088       2.57469
   120    C    3  dx2y2  Ryd( 4d)     0.00033       3.05287
   121    C    3  dx2y2  Ryd( 5d)     0.00007       3.16756
   122    C    3  dz2    Ryd( 3d)     0.00055       2.37764
   123    C    3  dz2    Ryd( 5d)     0.00028       3.48028
   124    C    3  dz2    Ryd( 4d)     0.00016       2.79822
   125    C    3  f(0)   Ryd( 5f)     0.00026       3.55491
   126    C    3  f(0)   Ryd( 4f)     0.00001       2.07633
   127    C    3  f(C1)  Ryd( 5f)     0.00019       3.62226
   128    C    3  f(C1)  Ryd( 4f)     0.00002       2.69366
   129    C    3  f(S1)  Ryd( 5f)     0.00023       3.80126
   130    C    3  f(S1)  Ryd( 4f)     0.00004       2.61969
   131    C    3  f(C2)  Ryd( 5f)     0.00014       3.72369
   132    C    3  f(C2)  Ryd( 4f)     0.00006       2.21191
   133    C    3  f(S2)  Ryd( 5f)     0.00001       3.48577
   134    C    3  f(S2)  Ryd( 4f)     0.00000       2.45608
   135    C    3  f(C3)  Ryd( 4f)     0.00010       4.35062
   136    C    3  f(C3)  Ryd( 5f)     0.00007       6.07889
   137    C    3  f(S3)  Ryd( 5f)     0.00020       4.52224
   138    C    3  f(S3)  Ryd( 4f)     0.00009       3.83547
 
   139    C    4  S      Cor( 1S)     1.99901     -10.39222
   140    C    4  S      Val( 2S)     0.95980      -0.20797
   141    C    4  S      Ryd( 3S)     0.00153       1.80869
   142    C    4  S      Ryd( 5S)     0.00009       2.86777
   143    C    4  S      Ryd( 4S)     0.00002       1.83662
   144    C    4  px     Val( 2p)     1.10828      -0.09816
   145    C    4  px     Ryd( 5p)     0.00420       1.77784
   146    C    4  px     Ryd( 4p)     0.00016       1.48450
   147    C    4  px     Ryd( 3p)     0.00004       1.21620
   148    C    4  py     Val( 2p)     1.15198      -0.10687
   149    C    4  py     Ryd( 4p)     0.00346       1.82739
   150    C    4  py     Ryd( 5p)     0.00003       1.87821
   151    C    4  py     Ryd( 3p)     0.00005       1.46249
   152    C    4  pz     Val( 2p)     1.03884      -0.14466
   153    C    4  pz     Ryd( 4p)     0.00084       1.04935
   154    C    4  pz     Ryd( 5p)     0.00001       1.24988
   155    C    4  pz     Ryd( 3p)     0.00004       0.92772
   156    C    4  dxy    Ryd( 3d)     0.00255       2.53304
   157    C    4  dxy    Ryd( 5d)     0.00021       3.76693
   158    C    4  dxy    Ryd( 4d)     0.00007       2.84324
   159    C    4  dxz    Ryd( 3d)     0.00027       1.38310
   160    C    4  dxz    Ryd( 5d)     0.00003       3.04637
   161    C    4  dxz    Ryd( 4d)     0.00003       1.55837
   162    C    4  dyz    Ryd( 3d)     0.00069       1.32579
   163    C    4  dyz    Ryd( 5d)     0.00003       3.07880
   164    C    4  dyz    Ryd( 4d)     0.00003       1.42316
   165    C    4  dx2y2  Ryd( 4d)     0.00213       3.00993
   166    C    4  dx2y2  Ryd( 5d)     0.00023       3.92909
   167    C    4  dx2y2  Ryd( 3d)     0.00008       2.07937
   168    C    4  dz2    Ryd( 3d)     0.00105       1.77471
   169    C    4  dz2    Ryd( 5d)     0.00011       4.00316
   170    C    4  dz2    Ryd( 4d)     0.00010       3.36587
   171    C    4  f(0)   Ryd( 5f)     0.00016       3.46482
   172    C    4  f(0)   Ryd( 4f)     0.00002       2.13595
   173    C    4  f(C1)  Ryd( 5f)     0.00028       3.74206
   174    C    4  f(C1)  Ryd( 4f)     0.00002       2.74683
   175    C    4  f(S1)  Ryd( 5f)     0.00025       3.65017
   176    C    4  f(S1)  Ryd( 4f)     0.00002       2.82005
   177    C    4  f(C2)  Ryd( 5f)     0.00001       3.57956
   178    C    4  f(C2)  Ryd( 4f)     0.00004       2.24267
   179    C    4  f(S2)  Ryd( 5f)     0.00002       3.63077
   180    C    4  f(S2)  Ryd( 4f)     0.00001       2.34261
   181    C    4  f(C3)  Ryd( 4f)     0.00017       4.20600
   182    C    4  f(C3)  Ryd( 5f)     0.00005       5.89988
   183    C    4  f(S3)  Ryd( 5f)     0.00008       4.35964
   184    C    4  f(S3)  Ryd( 4f)     0.00011       3.85483
 
   185    C    5  S      Cor( 1S)     1.99912     -10.39881
   186    C    5  S      Val( 2S)     0.94132      -0.19742
   187    C    5  S      Ryd( 3S)     0.00135       1.97751
   188    C    5  S      Ryd( 5S)     0.00011       2.85341
   189    C    5  S      Ryd( 4S)     0.00002       2.11979
   190    C    5  px     Val( 2p)     1.07867      -0.08125
   191    C    5  px     Ryd( 4p)     0.00364       1.96157
   192    C    5  px     Ryd( 5p)     0.00010       2.65599
   193    C    5  px     Ryd( 3p)     0.00007       0.81962
   194    C    5  py     Val( 2p)     1.13922      -0.08143
   195    C    5  py     Ryd( 4p)     0.00448       1.81863
   196    C    5  py     Ryd( 5p)     0.00007       2.43938
   197    C    5  py     Ryd( 3p)     0.00005       1.12750
   198    C    5  pz     Val( 2p)     0.94081      -0.13366
   199    C    5  pz     Ryd( 4p)     0.00065       1.03634
   200    C    5  pz     Ryd( 5p)     0.00007       1.68757
   201    C    5  pz     Ryd( 3p)     0.00003       0.56373
   202    C    5  dxy    Ryd( 3d)     0.00174       2.67121
   203    C    5  dxy    Ryd( 5d)     0.00015       3.97815
   204    C    5  dxy    Ryd( 4d)     0.00008       2.97325
   205    C    5  dxz    Ryd( 3d)     0.00078       1.44666
   206    C    5  dxz    Ryd( 5d)     0.00003       3.17952
   207    C    5  dxz    Ryd( 4d)     0.00006       1.67601
   208    C    5  dyz    Ryd( 3d)     0.00033       1.29692
   209    C    5  dyz    Ryd( 5d)     0.00008       3.20137
   210    C    5  dyz    Ryd( 4d)     0.00003       1.37905
   211    C    5  dx2y2  Ryd( 4d)     0.00201       3.47903
   212    C    5  dx2y2  Ryd( 5d)     0.00027       4.22477
   213    C    5  dx2y2  Ryd( 3d)     0.00008       2.44264
   214    C    5  dz2    Ryd( 3d)     0.00096       1.91249
   215    C    5  dz2    Ryd( 4d)     0.00012       3.86453
   216    C    5  dz2    Ryd( 5d)     0.00009       4.47498
   217    C    5  f(0)   Ryd( 4f)     0.00011       1.48800
   218    C    5  f(0)   Ryd( 5f)     0.00009       3.32842
   219    C    5  f(C1)  Ryd( 4f)     0.00054       2.02028
   220    C    5  f(C1)  Ryd( 5f)     0.00022       3.57370
   221    C    5  f(S1)  Ryd( 4f)     0.00054       1.81108
   222    C    5  f(S1)  Ryd( 5f)     0.00017       3.45132
   223    C    5  f(C2)  Ryd( 4f)     0.00035       1.57123
   224    C    5  f(C2)  Ryd( 5f)     0.00005       3.34230
   225    C    5  f(S2)  Ryd( 4f)     0.00017       1.52957
   226    C    5  f(S2)  Ryd( 5f)     0.00003       3.36171
   227    C    5  f(C3)  Ryd( 4f)     0.00042       2.73655
   228    C    5  f(C3)  Ryd( 5f)     0.00012       3.96581
   229    C    5  f(S3)  Ryd( 4f)     0.00109       2.05957
   230    C    5  f(S3)  Ryd( 5f)     0.00024       4.20410
 
   231    C    6  S      Cor( 1S)     1.99884     -10.37678
   232    C    6  S      Val( 2S)     0.88610      -0.12599
   233    C    6  S      Ryd( 3S)     0.00112       2.08486
   234    C    6  S      Ryd( 4S)     0.00008       2.69888
   235    C    6  S      Ryd( 5S)     0.00003       3.78119
   236    C    6  px     Val( 2p)     1.10462      -0.11570
   237    C    6  px     Ryd( 5p)     0.00568       2.30474
   238    C    6  px     Ryd( 4p)     0.00008       2.18616
   239    C    6  px     Ryd( 3p)     0.00006       1.03572
   240    C    6  py     Val( 2p)     1.14029      -0.11476
   241    C    6  py     Ryd( 5p)     0.00502       2.10945
   242    C    6  py     Ryd( 4p)     0.00007       2.08675
   243    C    6  py     Ryd( 3p)     0.00004       1.13900
   244    C    6  pz     Val( 2p)     1.08535      -0.14383
   245    C    6  pz     Ryd( 4p)     0.00120       0.93533
   246    C    6  pz     Ryd( 5p)     0.00013       1.80373
   247    C    6  pz     Ryd( 3p)     0.00002       0.67811
   248    C    6  dxy    Ryd( 3d)     0.00071       2.95379
   249    C    6  dxy    Ryd( 4d)     0.00042       3.78557
   250    C    6  dxy    Ryd( 5d)     0.00009       5.57993
   251    C    6  dxz    Ryd( 3d)     0.00027       1.46894
   252    C    6  dxz    Ryd( 5d)     0.00013       3.08729
   253    C    6  dxz    Ryd( 4d)     0.00014       2.04622
   254    C    6  dyz    Ryd( 3d)     0.00060       1.20231
   255    C    6  dyz    Ryd( 5d)     0.00012       2.98832
   256    C    6  dyz    Ryd( 4d)     0.00004       2.37669
   257    C    6  dx2y2  Ryd( 3d)     0.00285       2.84652
   258    C    6  dx2y2  Ryd( 4d)     0.00021       3.81280
   259    C    6  dx2y2  Ryd( 5d)     0.00003       4.92876
   260    C    6  dz2    Ryd( 3d)     0.00115       1.66707
   261    C    6  dz2    Ryd( 4d)     0.00018       4.06445
   262    C    6  dz2    Ryd( 5d)     0.00009       4.47643
   263    C    6  f(0)   Ryd( 4f)     0.00054       1.53749
   264    C    6  f(0)   Ryd( 5f)     0.00024       3.40680
   265    C    6  f(C1)  Ryd( 4f)     0.00037       1.93979
   266    C    6  f(C1)  Ryd( 5f)     0.00055       3.58513
   267    C    6  f(S1)  Ryd( 4f)     0.00078       1.84584
   268    C    6  f(S1)  Ryd( 5f)     0.00031       3.59248
   269    C    6  f(C2)  Ryd( 4f)     0.00070       1.51243
   270    C    6  f(C2)  Ryd( 5f)     0.00006       3.35217
   271    C    6  f(S2)  Ryd( 4f)     0.00073       1.45991
   272    C    6  f(S2)  Ryd( 5f)     0.00006       3.43419
   273    C    6  f(C3)  Ryd( 4f)     0.00124       2.35847
   274    C    6  f(C3)  Ryd( 5f)     0.00010       4.40341
   275    C    6  f(S3)  Ryd( 4f)     0.00193       2.52356
   276    C    6  f(S3)  Ryd( 5f)     0.00027       4.08811
 
   277    F    7  S      Cor( 1S)     1.99993     -25.01066
   278    F    7  S      Val( 2S)     1.81798      -1.41353
   279    F    7  S      Ryd( 3S)     0.00088       1.81578
   280    F    7  S      Ryd( 5S)     0.00003       7.90801
   281    F    7  S      Ryd( 4S)     0.00000       4.52287
   282    F    7  px     Val( 2p)     1.60224      -0.49653
   283    F    7  px     Ryd( 3p)     0.00010       0.60846
   284    F    7  px     Ryd( 4p)     0.00022       1.39134
   285    F    7  px     Ryd( 5p)     0.00002       6.21303
   286    F    7  py     Val( 2p)     1.97006      -0.54044
   287    F    7  py     Ryd( 3p)     0.00161       0.77075
   288    F    7  py     Ryd( 4p)     0.00015       1.16830
   289    F    7  py     Ryd( 5p)     0.00001       5.04232
   290    F    7  pz     Val( 2p)     1.92352      -0.53409
   291    F    7  pz     Ryd( 3p)     0.00122       0.62069
   292    F    7  pz     Ryd( 4p)     0.00002       0.85172
   293    F    7  pz     Ryd( 5p)     0.00000       4.87914
   294    F    7  dxy    Ryd( 4d)     0.00064       3.29736
   295    F    7  dxy    Ryd( 3d)     0.00003       2.25649
   296    F    7  dxy    Ryd( 5d)     0.00001       9.04263
   297    F    7  dxz    Ryd( 4d)     0.00108       2.91066
   298    F    7  dxz    Ryd( 3d)     0.00003       2.13500
   299    F    7  dxz    Ryd( 5d)     0.00001       8.80104
   300    F    7  dyz    Ryd( 4d)     0.00000       2.56760
   301    F    7  dyz    Ryd( 3d)     0.00002       1.65358
   302    F    7  dyz    Ryd( 5d)     0.00000       8.57249
   303    F    7  dx2y2  Ryd( 4d)     0.00140       3.90560
   304    F    7  dx2y2  Ryd( 3d)     0.00009       3.76903
   305    F    7  dx2y2  Ryd( 5d)     0.00000       9.06217
   306    F    7  dz2    Ryd( 4d)     0.00049       3.06957
   307    F    7  dz2    Ryd( 3d)     0.00002       2.59468
   308    F    7  dz2    Ryd( 5d)     0.00000       8.75334
   309    F    7  f(0)   Ryd( 4f)     0.00005       3.53937
   310    F    7  f(0)   Ryd( 5f)     0.00001       7.82701
   311    F    7  f(C1)  Ryd( 4f)     0.00007       3.70414
   312    F    7  f(C1)  Ryd( 5f)     0.00001       8.11335
   313    F    7  f(S1)  Ryd( 4f)     0.00002       3.50637
   314    F    7  f(S1)  Ryd( 5f)     0.00001       7.75063
   315    F    7  f(C2)  Ryd( 4f)     0.00009       3.59404
   316    F    7  f(C2)  Ryd( 5f)     0.00002       7.94707
   317    F    7  f(S2)  Ryd( 4f)     0.00000       3.56434
   318    F    7  f(S2)  Ryd( 5f)     0.00000       8.03686
   319    F    7  f(C3)  Ryd( 4f)     0.00009       3.79954
   320    F    7  f(C3)  Ryd( 5f)     0.00002       8.21895
   321    F    7  f(S3)  Ryd( 4f)     0.00009       3.79300
   322    F    7  f(S3)  Ryd( 5f)     0.00004       8.20392
 
   323    C    8  S      Cor( 1S)     1.99908     -10.53671
   324    C    8  S      Val( 2S)     0.77857      -0.10179
   325    C    8  S      Ryd( 4S)     0.00374       2.03284
   326    C    8  S      Ryd( 3S)     0.00017       1.92751
   327    C    8  S      Ryd( 5S)     0.00010       2.39175
   328    C    8  px     Val( 2p)     0.91552      -0.04707
   329    C    8  px     Ryd( 5p)     0.00591       1.61355
   330    C    8  px     Ryd( 3p)     0.00026       0.86409
   331    C    8  px     Ryd( 4p)     0.00001       1.57413
   332    C    8  py     Val( 2p)     0.72642      -0.02457
   333    C    8  py     Ryd( 4p)     0.01317       1.57878
   334    C    8  py     Ryd( 3p)     0.00007       0.81993
   335    C    8  py     Ryd( 5p)     0.00011       2.29092
   336    C    8  pz     Val( 2p)     0.75569      -0.12559
   337    C    8  pz     Ryd( 4p)     0.00058       1.12921
   338    C    8  pz     Ryd( 3p)     0.00007       0.50036
   339    C    8  pz     Ryd( 5p)     0.00003       1.26985
   340    C    8  dxy    Ryd( 5d)     0.00073       4.21333
   341    C    8  dxy    Ryd( 4d)     0.00009       3.47813
   342    C    8  dxy    Ryd( 3d)     0.00003       3.35655
   343    C    8  dxz    Ryd( 5d)     0.00063       3.25398
   344    C    8  dxz    Ryd( 4d)     0.00007       2.20219
   345    C    8  dxz    Ryd( 3d)     0.00006       1.54265
   346    C    8  dyz    Ryd( 5d)     0.00133       3.37235
   347    C    8  dyz    Ryd( 4d)     0.00004       2.39451
   348    C    8  dyz    Ryd( 3d)     0.00002       1.76084
   349    C    8  dx2y2  Ryd( 5d)     0.00158       4.25175
   350    C    8  dx2y2  Ryd( 4d)     0.00007       3.58515
   351    C    8  dx2y2  Ryd( 3d)     0.00005       2.27623
   352    C    8  dz2    Ryd( 5d)     0.00018       4.47685
   353    C    8  dz2    Ryd( 4d)     0.00015       3.50361
   354    C    8  dz2    Ryd( 3d)     0.00012       2.86950
   355    C    8  f(0)   Ryd( 5f)     0.00012       3.24637
   356    C    8  f(0)   Ryd( 4f)     0.00004       2.72645
   357    C    8  f(C1)  Ryd( 5f)     0.00018       3.60014
   358    C    8  f(C1)  Ryd( 4f)     0.00002       3.39898
   359    C    8  f(S1)  Ryd( 5f)     0.00007       3.49005
   360    C    8  f(S1)  Ryd( 4f)     0.00004       3.42989
   361    C    8  f(C2)  Ryd( 5f)     0.00002       3.18733
   362    C    8  f(C2)  Ryd( 4f)     0.00009       2.84711
   363    C    8  f(S2)  Ryd( 5f)     0.00002       3.42894
   364    C    8  f(S2)  Ryd( 4f)     0.00000       3.06975
   365    C    8  f(C3)  Ryd( 4f)     0.00007       4.67971
   366    C    8  f(C3)  Ryd( 5f)     0.00003       8.30042
   367    C    8  f(S3)  Ryd( 4f)     0.00009       4.23478
   368    C    8  f(S3)  Ryd( 5f)     0.00005       4.30362
 
   369    O    9  S      Cor( 1S)     1.99979     -19.32454
   370    O    9  S      Val( 2S)     1.70581      -0.99982
   371    O    9  S      Ryd( 4S)     0.00058       2.95480
   372    O    9  S      Ryd( 3S)     0.00022       1.42232
   373    O    9  S      Ryd( 5S)     0.00001       8.79136
   374    O    9  px     Val( 2p)     1.77230      -0.33858
   375    O    9  px     Ryd( 4p)     0.00113       1.23774
   376    O    9  px     Ryd( 3p)     0.00008       0.60378
   377    O    9  px     Ryd( 5p)     0.00003       4.85741
   378    O    9  py     Val( 2p)     1.64537      -0.33749
   379    O    9  py     Ryd( 4p)     0.00140       1.29802
   380    O    9  py     Ryd( 3p)     0.00015       0.60661
   381    O    9  py     Ryd( 5p)     0.00005       5.44998
   382    O    9  pz     Val( 2p)     1.45986      -0.28940
   383    O    9  pz     Ryd( 4p)     0.00082       0.87495
   384    O    9  pz     Ryd( 3p)     0.00003       0.49521
   385    O    9  pz     Ryd( 5p)     0.00000       4.18348
   386    O    9  dxy    Ryd( 3d)     0.00780       2.02715
   387    O    9  dxy    Ryd( 4d)     0.00015       3.01900
   388    O    9  dxy    Ryd( 5d)     0.00002       6.69616
   389    O    9  dxz    Ryd( 3d)     0.00208       1.42042
   390    O    9  dxz    Ryd( 4d)     0.00002       1.59812
   391    O    9  dxz    Ryd( 5d)     0.00001       6.53625
   392    O    9  dyz    Ryd( 3d)     0.00504       1.50750
   393    O    9  dyz    Ryd( 4d)     0.00005       1.63430
   394    O    9  dyz    Ryd( 5d)     0.00003       6.50949
   395    O    9  dx2y2  Ryd( 3d)     0.00588       1.83884
   396    O    9  dx2y2  Ryd( 4d)     0.00007       2.05237
   397    O    9  dx2y2  Ryd( 5d)     0.00005       6.59121
   398    O    9  dz2    Ryd( 3d)     0.00280       1.62100
   399    O    9  dz2    Ryd( 4d)     0.00009       2.43145
   400    O    9  dz2    Ryd( 5d)     0.00001       6.63063
   401    O    9  f(0)   Ryd( 4f)     0.00013       3.08264
   402    O    9  f(0)   Ryd( 5f)     0.00000       5.54998
   403    O    9  f(C1)  Ryd( 4f)     0.00008       3.23512
   404    O    9  f(C1)  Ryd( 5f)     0.00001       5.62998
   405    O    9  f(S1)  Ryd( 4f)     0.00011       3.48232
   406    O    9  f(S1)  Ryd( 5f)     0.00001       5.79160
   407    O    9  f(C2)  Ryd( 4f)     0.00010       3.05260
   408    O    9  f(C2)  Ryd( 5f)     0.00002       5.74402
   409    O    9  f(S2)  Ryd( 4f)     0.00030       3.13010
   410    O    9  f(S2)  Ryd( 5f)     0.00001       5.63439
   411    O    9  f(C3)  Ryd( 4f)     0.00039       3.88060
   412    O    9  f(C3)  Ryd( 5f)     0.00001       6.09381
   413    O    9  f(S3)  Ryd( 4f)     0.00045       3.55988
   414    O    9  f(S3)  Ryd( 5f)     0.00003       5.96475
 
   415    O   10  S      Cor( 1S)     1.99978     -19.45752
   416    O   10  S      Val( 2S)     1.67654      -1.03416
   417    O   10  S      Ryd( 3S)     0.00047       1.43432
   418    O   10  S      Ryd( 4S)     0.00008       2.54290
   419    O   10  S      Ryd( 5S)     0.00001       9.59010
   420    O   10  px     Val( 2p)     1.46943      -0.35915
   421    O   10  px     Ryd( 4p)     0.00069       1.13924
   422    O   10  px     Ryd( 3p)     0.00011       0.62052
   423    O   10  px     Ryd( 5p)     0.00004       5.26581
   424    O   10  py     Val( 2p)     1.69128      -0.40244
   425    O   10  py     Ryd( 4p)     0.00081       0.99169
   426    O   10  py     Ryd( 3p)     0.00015       0.53529
   427    O   10  py     Ryd( 5p)     0.00008       5.05039
   428    O   10  pz     Val( 2p)     1.84691      -0.41234
   429    O   10  pz     Ryd( 4p)     0.00123       0.75356
   430    O   10  pz     Ryd( 3p)     0.00002       0.50172
   431    O   10  pz     Ryd( 5p)     0.00001       4.15236
   432    O   10  dxy    Ryd( 3d)     0.00616       1.95775
   433    O   10  dxy    Ryd( 4d)     0.00018       2.43758
   434    O   10  dxy    Ryd( 5d)     0.00003       6.79821
   435    O   10  dxz    Ryd( 3d)     0.00038       1.14892
   436    O   10  dxz    Ryd( 4d)     0.00006       1.90797
   437    O   10  dxz    Ryd( 5d)     0.00001       6.50441
   438    O   10  dyz    Ryd( 3d)     0.00484       1.28909
   439    O   10  dyz    Ryd( 4d)     0.00003       1.69073
   440    O   10  dyz    Ryd( 5d)     0.00004       6.50665
   441    O   10  dx2y2  Ryd( 3d)     0.00397       1.74998
   442    O   10  dx2y2  Ryd( 4d)     0.00007       2.06824
   443    O   10  dx2y2  Ryd( 5d)     0.00007       6.87782
   444    O   10  dz2    Ryd( 3d)     0.00300       1.49668
   445    O   10  dz2    Ryd( 4d)     0.00014       2.30074
   446    O   10  dz2    Ryd( 5d)     0.00001       6.73426
   447    O   10  f(0)   Ryd( 4f)     0.00056       2.74140
   448    O   10  f(0)   Ryd( 5f)     0.00001       5.95306
   449    O   10  f(C1)  Ryd( 4f)     0.00027       3.30984
   450    O   10  f(C1)  Ryd( 5f)     0.00001       6.21161
   451    O   10  f(S1)  Ryd( 4f)     0.00014       3.25439
   452    O   10  f(S1)  Ryd( 5f)     0.00001       6.12553
   453    O   10  f(C2)  Ryd( 4f)     0.00006       2.80076
   454    O   10  f(C2)  Ryd( 5f)     0.00001       6.11142
   455    O   10  f(S2)  Ryd( 4f)     0.00009       2.82184
   456    O   10  f(S2)  Ryd( 5f)     0.00001       5.98131
   457    O   10  f(C3)  Ryd( 4f)     0.00009       4.33521
   458    O   10  f(C3)  Ryd( 5f)     0.00005       6.53313
   459    O   10  f(S3)  Ryd( 4f)     0.00009       3.76245
   460    O   10  f(S3)  Ryd( 5f)     0.00002       6.45736
 
   461    H   11  S      Val( 1S)     0.75561       0.04638
   462    H   11  S      Ryd( 4S)     0.00043       1.96228
   463    H   11  S      Ryd( 2S)     0.00016       0.75953
   464    H   11  S      Ryd( 3S)     0.00004       1.53242
   465    H   11  px     Ryd( 2p)     0.00049       0.99904
   466    H   11  px     Ryd( 4p)     0.00009       4.07678
   467    H   11  px     Ryd( 3p)     0.00007       2.47730
   468    H   11  py     Ryd( 2p)     0.00088       0.90723
   469    H   11  py     Ryd( 4p)     0.00014       4.47153
   470    H   11  py     Ryd( 3p)     0.00007       3.60679
   471    H   11  pz     Ryd( 2p)     0.00015       0.64676
   472    H   11  pz     Ryd( 4p)     0.00005       3.77164
   473    H   11  pz     Ryd( 3p)     0.00006       1.75104
   474    H   11  dxy    Ryd( 3d)     0.00008       2.16420
   475    H   11  dxy    Ryd( 4d)     0.00002       4.40182
   476    H   11  dxz    Ryd( 3d)     0.00002       1.55619
   477    H   11  dxz    Ryd( 4d)     0.00000       3.58820
   478    H   11  dyz    Ryd( 3d)     0.00001       1.69478
   479    H   11  dyz    Ryd( 4d)     0.00001       3.90749
   480    H   11  dx2y2  Ryd( 3d)     0.00007       2.19915
   481    H   11  dx2y2  Ryd( 4d)     0.00004       4.44301
   482    H   11  dz2    Ryd( 3d)     0.00005       2.01625
   483    H   11  dz2    Ryd( 4d)     0.00003       3.85761
 
   484    H   12  S      Val( 1S)     0.76811       0.02224
   485    H   12  S      Ryd( 4S)     0.00036       2.01294
   486    H   12  S      Ryd( 2S)     0.00013       0.65809
   487    H   12  S      Ryd( 3S)     0.00003       1.40687
   488    H   12  px     Ryd( 2p)     0.00063       0.92850
   489    H   12  px     Ryd( 4p)     0.00009       4.15937
   490    H   12  px     Ryd( 3p)     0.00006       2.46124
   491    H   12  py     Ryd( 2p)     0.00047       0.99696
   492    H   12  py     Ryd( 4p)     0.00012       4.61959
   493    H   12  py     Ryd( 3p)     0.00006       3.11694
   494    H   12  pz     Ryd( 2p)     0.00032       0.69762
   495    H   12  pz     Ryd( 4p)     0.00005       3.67948
   496    H   12  pz     Ryd( 3p)     0.00004       1.66208
   497    H   12  dxy    Ryd( 3d)     0.00015       2.05606
   498    H   12  dxy    Ryd( 4d)     0.00002       4.35387
   499    H   12  dxz    Ryd( 3d)     0.00003       1.54685
   500    H   12  dxz    Ryd( 4d)     0.00001       3.59699
   501    H   12  dyz    Ryd( 3d)     0.00001       1.68524
   502    H   12  dyz    Ryd( 4d)     0.00001       3.83784
   503    H   12  dx2y2  Ryd( 3d)     0.00005       2.04002
   504    H   12  dx2y2  Ryd( 4d)     0.00001       4.44032
   505    H   12  dz2    Ryd( 3d)     0.00002       1.88912
   506    H   12  dz2    Ryd( 4d)     0.00003       3.81879
 
   507    H   13  S      Val( 1S)     0.76948       0.02143
   508    H   13  S      Ryd( 4S)     0.00039       2.00402
   509    H   13  S      Ryd( 2S)     0.00014       0.66270
   510    H   13  S      Ryd( 3S)     0.00003       1.42373
   511    H   13  px     Ryd( 2p)     0.00058       0.96072
   512    H   13  px     Ryd( 4p)     0.00009       4.14452
   513    H   13  px     Ryd( 3p)     0.00006       2.36174
   514    H   13  py     Ryd( 2p)     0.00055       1.06384
   515    H   13  py     Ryd( 4p)     0.00014       4.67383
   516    H   13  py     Ryd( 3p)     0.00005       3.25034
   517    H   13  pz     Ryd( 2p)     0.00033       0.73590
   518    H   13  pz     Ryd( 4p)     0.00005       3.70124
   519    H   13  pz     Ryd( 3p)     0.00004       1.60987
   520    H   13  dxy    Ryd( 3d)     0.00013       2.14366
   521    H   13  dxy    Ryd( 4d)     0.00003       4.35277
   522    H   13  dxz    Ryd( 3d)     0.00002       1.62235
   523    H   13  dxz    Ryd( 4d)     0.00001       3.49386
   524    H   13  dyz    Ryd( 3d)     0.00001       1.80118
   525    H   13  dyz    Ryd( 4d)     0.00001       3.79705
   526    H   13  dx2y2  Ryd( 3d)     0.00006       2.05779
   527    H   13  dx2y2  Ryd( 4d)     0.00001       4.40858
   528    H   13  dz2    Ryd( 3d)     0.00002       1.98669
   529    H   13  dz2    Ryd( 4d)     0.00003       3.76603
 
   530    H   14  S      Val( 1S)     0.76361       0.03743
   531    H   14  S      Ryd( 4S)     0.00043       1.95415
   532    H   14  S      Ryd( 2S)     0.00015       0.81124
   533    H   14  S      Ryd( 3S)     0.00003       1.53187
   534    H   14  px     Ryd( 2p)     0.00062       0.95916
   535    H   14  px     Ryd( 4p)     0.00010       4.16838
   536    H   14  px     Ryd( 3p)     0.00008       3.23866
   537    H   14  py     Ryd( 2p)     0.00079       0.89802
   538    H   14  py     Ryd( 4p)     0.00016       4.30306
   539    H   14  py     Ryd( 3p)     0.00005       3.96694
   540    H   14  pz     Ryd( 2p)     0.00022       0.58383
   541    H   14  pz     Ryd( 4p)     0.00003       3.93190
   542    H   14  pz     Ryd( 3p)     0.00007       2.05131
   543    H   14  dxy    Ryd( 3d)     0.00010       2.15337
   544    H   14  dxy    Ryd( 4d)     0.00003       4.51471
   545    H   14  dxz    Ryd( 3d)     0.00005       1.49779
   546    H   14  dxz    Ryd( 4d)     0.00001       3.81679
   547    H   14  dyz    Ryd( 3d)     0.00003       1.58449
   548    H   14  dyz    Ryd( 4d)     0.00001       4.02498
   549    H   14  dx2y2  Ryd( 3d)     0.00005       2.18620
   550    H   14  dx2y2  Ryd( 4d)     0.00004       4.57780
   551    H   14  dz2    Ryd( 3d)     0.00005       2.18055
   552    H   14  dz2    Ryd( 4d)     0.00002       4.19821
 
   553    H   15  S      Val( 1S)     0.49055       0.13415
   554    H   15  S      Ryd( 4S)     0.00120       1.80297
   555    H   15  S      Ryd( 3S)     0.00020       1.60956
   556    H   15  S      Ryd( 2S)     0.00007       0.53193
   557    H   15  px     Ryd( 2p)     0.00050       1.75757
   558    H   15  px     Ryd( 4p)     0.00033       4.59286
   559    H   15  px     Ryd( 3p)     0.00001       3.13613
   560    H   15  py     Ryd( 2p)     0.00029       1.32943
   561    H   15  py     Ryd( 4p)     0.00007       3.76653
   562    H   15  py     Ryd( 3p)     0.00001       2.76040
   563    H   15  pz     Ryd( 2p)     0.00062       1.04950
   564    H   15  pz     Ryd( 4p)     0.00007       3.48293
   565    H   15  pz     Ryd( 3p)     0.00001       2.45021
   566    H   15  dxy    Ryd( 3d)     0.00008       1.40948
   567    H   15  dxy    Ryd( 4d)     0.00001       4.40671
   568    H   15  dxz    Ryd( 3d)     0.00014       1.13908
   569    H   15  dxz    Ryd( 4d)     0.00000       4.22954
   570    H   15  dyz    Ryd( 3d)     0.00003       1.15721
   571    H   15  dyz    Ryd( 4d)     0.00000       3.79987
   572    H   15  dx2y2  Ryd( 3d)     0.00010       1.75871
   573    H   15  dx2y2  Ryd( 4d)     0.00001       4.57952
   574    H   15  dz2    Ryd( 3d)     0.00011       1.61121
   575    H   15  dz2    Ryd( 4d)     0.00001       4.02811

 WARNING:  1 low occupancy (<1.9990e) core orbital  found on  C    3
           1 low occupancy (<1.9990e) core orbital  found on  C    6

 WARNING:  Population inversion found on atom  C    1
           Population inversion found on atom  C    2
           Population inversion found on atom  C    3
           Population inversion found on atom  C    4
           Population inversion found on atom  C    5
           Population inversion found on atom  C    6
           Population inversion found on atom  F    7
           Population inversion found on atom  C    8
           Population inversion found on atom  O    9
           Population inversion found on atom  O   10
           Population inversion found on atom  H   11
           Population inversion found on atom  H   12
           Population inversion found on atom  H   13
           Population inversion found on atom  H   14
           Population inversion found on atom  H   15


 Summary of Natural Population Analysis:                  
                                                          
                                       Natural Population 
                Natural  -----------------------------------------------
    Atom  No    Charge         Core      Valence    Rydberg      Total
 -----------------------------------------------------------------------
      C    1   -0.10370      1.99911     4.08615    0.01845     6.10370
      C    2   -0.27583      1.99902     4.25762    0.01920     6.27583
      C    3    0.43318      1.99828     3.54330    0.02525     5.56682
      C    4   -0.27722      1.99901     4.25890    0.01931     6.27722
      C    5   -0.12070      1.99912     4.10002    0.02156     6.12070
      C    6   -0.24366      1.99884     4.21636    0.02846     6.24366
      F    7   -0.32233      1.99993     7.31379    0.00861     9.32233
      C    8    0.79450      1.99908     3.17620    0.03022     5.20550
      O    9   -0.61342      1.99979     6.58334    0.03029     8.61342
      O   10   -0.70804      1.99978     6.68415    0.02411     8.70804
      H   11    0.24142      0.00000     0.75561    0.00297     0.75858
      H   12    0.22919      0.00000     0.76811    0.00270     0.77081
      H   13    0.22774      0.00000     0.76948    0.00277     0.77226
      H   14    0.23329      0.00000     0.76361    0.00310     0.76671
      H   15    0.50558      0.00000     0.49055    0.00387     0.49442
 =======================================================================
   * Total *    0.00000     19.99194    51.76718    0.24088    72.00000

                                 Natural Population      
 --------------------------------------------------------
   Core                      19.99194 ( 99.9597% of  20)
   Valence                   51.76718 ( 99.5523% of  52)
   Natural Minimal Basis     71.75912 ( 99.6654% of  72)
   Natural Rydberg Basis      0.24088 (  0.3346% of  72)
 --------------------------------------------------------

    Atom  No          Natural Electron Configuration
 ----------------------------------------------------------------------------
      C    1      [core]2S( 0.94)2p( 3.14)4p( 0.01)
      C    2      [core]2S( 0.96)2p( 3.30)5p( 0.01)
      C    3      [core]2S( 0.84)2p( 2.71)3d( 0.01)4p( 0.01)
      C    4      [core]2S( 0.96)2p( 3.30)
      C    5      [core]2S( 0.94)2p( 3.16)4p( 0.01)
      C    6      [core]2S( 0.89)2p( 3.33)3d( 0.01)5p( 0.01)4f( 0.01)
      F    7      [core]2S( 1.82)2p( 5.50)
      C    8      [core]2S( 0.78)2p( 2.40)4p( 0.01)5p( 0.01)
      O    9      [core]2S( 1.71)2p( 4.88)3d( 0.02)
      O   10      [core]2S( 1.68)2p( 5.01)3d( 0.02)
      H   11            1S( 0.76)
      H   12            1S( 0.77)
      H   13            1S( 0.77)
      H   14            1S( 0.76)
      H   15            1S( 0.49)


 NATURAL BOND ORBITAL ANALYSIS:

                       Occupancies       Lewis Structure    Low   High
           Occ.    -------------------  -----------------   occ   occ
  Cycle   Thresh.   Lewis   Non-Lewis     CR  BD  3C  LP    (L)   (NL)   Dev
 =============================================================================
   1(1)    1.90    68.04489   3.95511     10  17   0   9     8      6    0.47
   2(2)    1.90    68.04489   3.95511     10  17   0   9     8      6    0.47
   3(1)    1.80    68.40726   3.59274     10  16   0  10     3      4    0.47
   4(2)    1.80    68.40726   3.59274     10  16   0  10     3      4    0.47
   5(1)    1.70    68.40726   3.59274     10  16   0  10     3      4    0.47
   6(2)    1.70    68.40726   3.59274     10  16   0  10     3      4    0.47
   7(1)    1.60    70.18995   1.81005     10  19   0   7     0      4    0.45
   8(2)    1.60    70.15925   1.84075     10  19   0   7     0      4    0.47
   9(3)    1.60    69.67298   2.32702     10  18   0   8     1      4    0.39
  10(4)    1.60    70.18995   1.81005     10  19   0   7     0      4    0.45
  11(5)    1.60    69.67298   2.32702     10  18   0   8     1      4    0.39
  12(6)    1.60    70.18995   1.81005     10  19   0   7     0      4    0.45
  13(7)    1.60    69.67298   2.32702     10  18   0   8     1      4    0.39
  14(8)    1.60    70.18995   1.81005     10  19   0   7     0      4    0.45
  15(9)    1.60    69.67298   2.32702     10  18   0   8     1      4    0.39
  16(1)    1.50    69.70182   2.29818     10  18   0   8     0      5    0.73
  17(2)    1.50    69.70182   2.29818     10  18   0   8     0      5    0.73
  18(1)    1.60    70.18995   1.81005     10  19   0   7     0      4    0.45
 -----------------------------------------------------------------------------

 Structure accepted: RESONANCE keyword permits strongly delocalized structure

 WARNING:  1 low occupancy (<1.9990e) core orbital  found on  C    3
           1 low occupancy (<1.9990e) core orbital  found on  C    6

 --------------------------------------------------------
   Core                     19.99197 ( 99.960% of  20)
   Valence Lewis            50.19798 ( 96.535% of  52)
  ==================       ============================
   Total Lewis              70.18995 ( 97.486% of  72)
  -----------------------------------------------------
   Valence non-Lewis         1.67437 (  2.326% of  72)
   Rydberg non-Lewis         0.13567 (  0.188% of  72)
  ==================       ============================
   Total non-Lewis           1.81005 (  2.514% of  72)
 --------------------------------------------------------


       (Occupancy)   Bond orbital/ Coefficients/ Hybrids
 ---------------------------------------------------------------------------------
     1. (1.97429) BD ( 1) C   1 - C   2  
                ( 49.38%)   0.7027* C   1 s( 36.14%)p 1.76( 63.70%)d 0.00(  0.13%)
                                                  f 0.00(  0.03%)
                                            0.0001  0.6009 -0.0178  0.0007  0.0007
                                           -0.7972  0.0183  0.0041 -0.0011 -0.0147
                                           -0.0300  0.0015  0.0000  0.0000  0.0000
                                            0.0000  0.0000  0.0115  0.0015  0.0031
                                            0.0000  0.0000  0.0000  0.0000  0.0000
                                            0.0000  0.0253  0.0054 -0.0025 -0.0222
                                            0.0001 -0.0029  0.0000  0.0000  0.0126
                                           -0.0010  0.0004  0.0005  0.0000  0.0000
                                            0.0000  0.0000 -0.0089  0.0006  0.0014
                                           -0.0051
                ( 50.62%)   0.7114* C   2 s( 37.69%)p 1.65( 62.14%)d 0.00(  0.14%)
                                                  f 0.00(  0.03%)
                                           -0.0002  0.6136 -0.0195  0.0002 -0.0003
                                            0.7863 -0.0174  0.0036 -0.0018  0.0454
                                           -0.0278  0.0020  0.0007  0.0000  0.0000
                                            0.0000  0.0000 -0.0091 -0.0015 -0.0038
                                            0.0000  0.0000  0.0000  0.0000  0.0000
[...]
 ! D26   D(1,6,8,10)           179.993          -DE/DX =    0.0                 !
 ! D27   D(5,6,8,9)            179.9964         -DE/DX =    0.0                 !
 ! D28   D(5,6,8,10)            -0.0075         -DE/DX =    0.0                 !
 ! D29   D(6,8,10,15)          180.0017         -DE/DX =    0.0                 !
 ! D30   D(9,8,10,15)           -0.002          -DE/DX =    0.0                 !
 --------------------------------------------------------------------------------
 GradGradGradGradGradGradGradGradGradGradGradGradGradGradGradGradGradGrad


 ----------------------------------------------------------------------

 Electric dipole moment (input orientation):
 (Debye = 10**-18 statcoulomb cm , SI units = C m)
                  (au)            (Debye)         (10**-30 SI)
   Tot        0.551352D+00      0.140140D+01      0.467456D+01
   x          0.551345D+00      0.140138D+01      0.467449D+01
   y         -0.282710D-02     -0.718577D-02     -0.239691D-01
   z          0.433029D-03      0.110065D-02      0.367137D-02

 Dipole polarizability, Alpha (input orientation).
 (esu units = cm**3 , SI units = C**2 m**2 J**-1)
 Alpha(0;0):
               (au)            (10**-24 esu)      (10**-40 SI)
   iso        0.878038D+02      0.130112D+02      0.144769D+02
   aniso      0.585432D+02      0.867520D+01      0.965246D+01
   xx         0.939649D+02      0.139242D+02      0.154927D+02
   yx        -0.100150D+01     -0.148407D+00     -0.165125D+00
   yy         0.118084D+03      0.174983D+02      0.194695D+02
   zx         0.309880D-01      0.459195D-02      0.510923D-02
   zy         0.152284D-01      0.225662D-02      0.251083D-02
   zz         0.513622D+02      0.761109D+01      0.846848D+01

 ----------------------------------------------------------------------

 Dipole orientation:
     6         -0.00225205         -0.38110548         -2.25948314
     6         -0.01502728         -2.99405025         -2.24426398
     6         -0.02084151         -4.21807298          0.06546607
     6         -0.01442164         -2.93895298          2.34289094
     6         -0.00164421         -0.32296184          2.30047619
     6          0.00446097          0.95936540          0.00381987
     9         -0.03320358         -6.74636064          0.09659632
     6          0.01815332          3.75832750         -0.13102991
     8          0.02401870          4.96222789         -2.05599851
     8          0.02344632          4.86658164          2.16104280
     1          0.00272378          0.66023099         -4.01673671
     1         -0.02051821         -4.09046962         -3.96589973
     1         -0.01944594         -3.99356919          4.09043342
     1          0.00363950          0.73231539          4.04726691
     1          0.03222413          6.66959419          1.87497969

 Electric dipole moment (dipole orientation):
 (Debye = 10**-18 statcoulomb cm , SI units = C m)
                  (au)            (Debye)         (10**-30 SI)
   Tot        0.551352D+00      0.140140D+01      0.467456D+01
   x          0.000000D+00      0.000000D+00      0.000000D+00
   y          0.000000D+00      0.000000D+00      0.000000D+00
   z          0.551352D+00      0.140140D+01      0.467456D+01

 Dipole polarizability, Alpha (dipole orientation).
 (esu units = cm**3 , SI units = C**2 m**2 J**-1)
 Alpha(0;0):
               (au)            (10**-24 esu)      (10**-40 SI)
   iso        0.878038D+02      0.130112D+02      0.144769D+02
   aniso      0.585432D+02      0.867520D+01      0.965246D+01
   xx         0.513637D+02      0.761132D+01      0.846874D+01
   yx         0.325793D+00      0.482775D-01      0.537159D-01
   yy         0.118072D+03      0.174964D+02      0.194674D+02
   zx        -0.321008D-02     -0.475685D-03     -0.529271D-03
   zy        -0.112511D+01     -0.166724D+00     -0.185505D+00
   zz         0.939758D+02      0.139258D+02      0.154945D+02

 ----------------------------------------------------------------------
 Unable to Open any file for archive entry.
 1\1\GINC-AE05\Freq\RM062X\Aug-CC-pVTZ\C7H5F1O2\DHUANG\05-Sep-2022\0\\#
 N Geom=AllCheck Guess=TCheck SCRF=Check GenChk RM062X/Aug-CC-pVTZ Freq
 \\4-F_benzoic-acid\\0,1\C,-1.1966851292,-0.195542271,-0.0007814413\C,-
 1.1957213885,-1.5782926986,-0.0011048039\C,0.0231975674,-2.2322835973,
 -0.0003893906\C,1.2318134403,-1.5615823747,0.0006306931\C,1.2164668665
 ,-0.177146117,0.0009498511\C,0.0046243388,0.5076626986,0.0002441131\F,
 0.0328106837,-3.5702786448,-0.0006950654\C,-0.0591396196,1.9891737676,
 0.0005371798\O,-1.074508857,2.6314727896,-0.0000999849\O,1.1567637096,
 2.569416246,0.0016960316\H,-2.1237457222,0.3602763997,-0.001319283\H,-
 2.1097345391,-2.1538210085,-0.0018897253\H,2.1536991845,-2.124401979,0
 .0011541123\H,2.1436796412,0.3765424594,0.0017432417\H,1.0102798234,3.
 5243043301,0.0018244718\\Version=ES64L-G16RevC.01\State=1-A\HF=-520.07
 17662\RMSD=3.284e-09\RMSF=9.652e-05\ZeroPoint=0.108404\Thermal=0.11627
 62\ETot=-519.95549\HTot=-519.9545458\GTot=-519.9966198\Dipole=0.551344
 6,-0.0028271,0.000433\DipoleDeriv=0.0522781,0.1246983,0.0001215,-0.028
 8923,0.2076462,0.0000441,0.0000882,0.0001712,-0.0759886,-0.0755106,0.2
 860052,0.0001094,0.0956674,-0.2973899,0.0000309,0.0000651,0.0001644,-0
 .1364256,0.3600208,0.0024322,0.0001664,-0.0121713,1.5952395,0.0003358,
 0.0001622,0.000344,0.1281256,-0.0669978,-0.2963501,-0.0000171,-0.07830
 63,-0.3250921,-0.0000996,0.0000352,-0.0002543,-0.1408376,0.0527343,-0.
 1222685,0.0000645,0.0194117,0.2350136,0.0000899,0.0001015,-0.000017,-0
 .078348,-0.1700073,-0.0052321,-0.0000898,0.0032045,-0.6548822,-0.00014
 15,-0.0000877,-0.0001421,-0.0566582,-0.1999031,0.0080702,-0.0000433,0.
 0137358,-1.4803309,-0.0003062,-0.0000419,-0.0003077,-0.1365195,1.66292
 38,0.083668,0.0011235,0.0322737,2.1598697,0.0004692,0.0010996,0.000529
 1,0.338175,-0.9873606,0.3240509,-0.0004333,0.3731374,-1.1546937,0.0001
 161,-0.0003958,0.000051,-0.3725118,-1.0430232,-0.5024535,-0.0006842,-0
 .4986897,-0.9041665,-0.0005417,-0.0006997,-0.0005597,-0.3612386,0.0440
 406,0.0198281,-0.0000534,0.0333509,0.1008227,0.0000169,-0.0000532,0.00
 00058,0.126504,0.0308522,-0.0448565,-0.0000979,-0.0344397,0.0412785,-0
 .0000511,-0.0000945,-0.0000598,0.1538339,0.0272107,0.0450012,-0.000079
 6,0.0344265,0.0415997,-0.0000022,-0.000083,0.0000057,0.1539258,0.03111
 21,-0.0334995,-0.0000761,-0.0314562,0.0915695,-0.000029,-0.0000779,-0.
 0000292,0.1279441,0.2816302,0.1109061,-0.0000107,0.0787476,0.3435159,0
 .0000684,-0.0000181,0.0000986,0.3300193\Polar=93.9648769,-1.0015016,11
 8.0842933,0.030988,0.0152284,51.3621804\Quadrupole=2.7245303,-1.457539
 2,-1.2669912,4.6558114,0.0036924,0.0037207\PG=C01 [X(C7H5F1O2)]\NImag=
 0\\0.72282739,-0.04174875,0.72001559,0.00040445,0.00010346,0.14579256,
 -0.13423920,-0.03917344,-0.00006193,0.73978693,0.03655933,-0.36008999,
 -0.00004336,0.04447964,0.72638993,-0.00004374,-0.00009804,-0.06093341,
 0.00044585,0.00017145,0.12847614,0.04907140,0.09804695,0.00005813,-0.3
 0673739,0.02700734,-0.00016265,0.72030660,0.02842870,-0.03004806,0.000
 01312,0.11794875,-0.15362332,0.00006417,0.00100242,0.69722735,0.000041
 38,0.00006278,0.00032785,-0.00014146,-0.00000061,-0.06931511,0.0003978
 9,0.00012628,0.16276438,-0.02139329,-0.03252207,-0.00002145,-0.0525415
 6,0.02648441,-0.00003768,-0.30600163,-0.12096437,-0.00019734,0.7428522
 5,-0.03593429,-0.05720017,-0.00003877,-0.02784049,0.07018668,-0.000005
 61,-0.03008577,-0.15639136,-0.00004188,-0.04239920,0.72161674,-0.00002
 228,-0.00003632,-0.00196259,-0.00005051,0.00003339,0.00893739,-0.00017
 598,-0.00010691,-0.06946001,0.00042853,0.00011083,0.12799404,-0.062525
 81,-0.02867654,-0.00005604,-0.02194916,0.03586880,-0.00000604,0.050005
 91,-0.02720242,0.00002912,-0.13350988,-0.03436509,-0.00005956,0.727946
 29,0.02717268,0.06995976,0.00003417,0.03326593,-0.05654904,0.00001097,
 -0.09738247,-0.03147847,-0.00007707,0.04204365,-0.35491370,-0.00004012
 ,0.04254638,0.70946373,-0.00004296,-0.00000551,0.00650148,-0.00000651,
 0.00001278,-0.00180342,0.00001270,-0.00002691,0.00028578,-0.00004179,-
 0.00009481,-0.06109072,0.00042702,0.00016432,0.14487941,-0.28078493,-0
 .04976222,-0.00016535,0.04017127,-0.07850828,0.00000525,-0.08780527,-0
 .00061540,-0.00005882,0.03806334,0.08022418,0.00004034,-0.28518858,0.0
 4895199,-0.00014598,0.71901750,-0.11635954,-0.16843839,-0.00010630,-0.
 02329195,-0.03225266,-0.00002572,-0.00082041,0.00539696,0.00000195,0.0
 2466078,-0.03075952,0.00000881,0.11505478,-0.16845830,0.00005742,-0.00
 349644,0.66087077,-0.00018146,-0.00005857,-0.06641585,0.00001913,-0.00
 006554,0.00664193,-0.00005935,0.00000215,-0.00554812,0.00002787,0.0000
 4843,0.00733984,-0.00013089,0.00001071,-0.06497193,0.00041588,0.000119
 70,0.14395620,-0.00901082,-0.00442247,-0.00001270,0.00611889,0.0473901
 3,0.00000897,-0.07822931,0.00189106,-0.00002208,0.00676041,-0.04677209
 ,-0.00001269,-0.00888379,0.00433945,-0.00001055,0.00526837,0.00010307,
 0.00000423,0.07150447,0.00604926,0.00498627,0.00000394,0.00626584,-0.0
 4837713,-0.00000895,0.00195060,-0.34208119,-0.00006776,-0.00572547,-0.
 04920010,-0.00001772,-0.00597295,0.00485019,-0.00000485,-0.00028288,-0
 .00893104,-0.00000223,-0.00250331,0.43523275,-0.00001017,-0.00000363,0
 .00726915,-0.00000066,0.00002028,0.00913624,-0.00002198,-0.00006770,-0
 .04658736,-0.00000315,-0.00004714,0.00916048,-0.00001305,0.00000255,0.
 00734426,0.00000420,-0.00000190,-0.00059049,0.00003262,0.00009421,0.02
 491023,0.01186845,-0.02493281,0.00000249,-0.00537588,-0.00708445,-0.00
 001087,-0.00586116,0.00033828,-0.00000377,-0.00566240,0.00549015,-0.00
 000863,0.00875640,0.02669611,0.00001309,-0.09909977,-0.00883310,-0.000
 01342,-0.00000209,0.00005343,0.00000088,0.88131708,-0.01729894,-0.0297
 6414,-0.00002021,-0.00514833,0.00691539,-0.00000390,0.00011352,-0.0085
 0164,-0.00000182,0.00451344,0.00732994,0.00000293,0.01564377,-0.019966
 90,0.00000737,0.00258643,-0.20885578,-0.00002590,-0.00001864,0.0103003
 7,0.00000270,-0.19168092,0.75709442,0.00000401,-0.00002455,0.00074636,
 -0.00001050,-0.00000537,0.00751380,-0.00000408,-0.00000182,-0.00031753
 ,-0.00000879,0.00000406,0.00805573,0.00001125,0.00001427,-0.00111341,-
 0.00001045,-0.00003786,-0.08259607,0.00000083,0.00000288,-0.00123788,0
 .00047837,-0.00001278,0.21854131,-0.00738523,-0.00612218,-0.00000709,0
 .00079971,0.00256958,0.00000181,0.00010431,-0.00226935,-0.00000054,0.0
 0147510,0.00131928,0.00000280,0.00273811,-0.00011117,-0.00000022,-0.00
 681481,0.02880563,-0.00001517,0.00042641,0.00206175,0.00000064,-0.5544
 4963,0.29752132,-0.00029882,0.67452741,0.00439993,0.00079715,0.0000037
 4,0.00142207,-0.00034625,0.00000096,0.00199172,0.00340188,0.00000214,0
 .00054875,-0.00401173,-0.00000027,-0.00750726,-0.00453726,-0.00000707,
 0.04630233,-0.03571115,0.00002204,-0.00017419,-0.00418611,-0.00000111,
 0.28926897,-0.31526374,0.00016876,-0.34182096,0.32089009,-0.00000461,-
 0.00000458,0.00026131,0.00000146,0.00000197,-0.00079967,0.00000046,-0.
 00000085,0.00006112,0.00000241,0.00000046,-0.00175553,-0.00000187,-0.0
 0000169,0.00302051,-0.00001117,0.00000940,0.02152011,0.00000015,0.0000
 0046,0.00018975,-0.00030006,0.00017451,-0.08077212,0.00042216,-0.00019
 808,0.03421563,0.00185434,0.00095912,0.00000037,0.00154404,-0.00076007
 ,0.00000136,-0.00007701,0.00186224,0.00000033,0.00040866,-0.00179165,0
 .00000050,-0.00463035,0.00211102,-0.00000318,-0.00385302,-0.01426413,-
 0.00001681,0.00033790,-0.00214340,-0.00000034,-0.23556885,-0.05144018,
 -0.00015247,-0.11508075,-0.00282890,-0.00011865,0.41402711,0.00568997,
 -0.00476104,0.00000242,-0.00090836,-0.00284187,-0.00000092,-0.00162457
 ,0.00244026,-0.00000057,-0.00097588,-0.00019943,-0.00000046,-0.0016380
 8,-0.00389090,-0.00000267,-0.04274739,-0.02972308,-0.00004565,0.000181
 44,-0.00304980,-0.00000063,-0.07991581,-0.16967432,-0.00009310,0.00861
 465,0.03920203,0.00000951,0.00830337,0.66715505,0.00000195,-0.00000095
 ,0.00150440,0.00000126,-0.00000123,-0.00045379,-0.00000051,0.00000212,
 0.00002629,0.00000051,-0.00000133,-0.00071253,-0.00000433,0.00000051,0
 .00049012,-0.00002370,-0.00002145,0.01194439,0.00000025,-0.00000256,0.
 00009738,-0.00016120,-0.00007010,-0.06595523,-0.00011501,0.00000030,0.
 02977104,0.00031050,0.00017093,0.03803332,-0.27368871,0.12532318,-0.00
 013766,0.00608710,-0.00257399,0.00000002,0.00131489,-0.00110694,-0.000
 00529,0.00041164,-0.00074033,0.00000090,-0.00328201,-0.00384831,-0.000
 00733,-0.01874151,0.01489513,-0.00001370,0.00029822,-0.00041798,0.0000
 0044,-0.00272950,0.00223039,0.00000128,0.00239998,0.00055884,0.0000020
 4,0.00085324,-0.00000005,0.00000063,0.28760490,0.12708571,-0.13260654,
 0.00007008,0.02630359,-0.00997941,0.00001537,-0.00121014,-0.00402777,-
 0.00000367,-0.00075710,-0.00097647,-0.00000053,-0.00356249,-0.00134396
 ,-0.00000417,-0.01236325,0.01301186,-0.00000704,0.00147398,-0.00153806
 ,0.00000077,-0.00225526,0.00062320,-0.00000074,0.00064557,-0.00199402,
 0.00000002,0.00142901,0.00042796,0.00000130,-0.13546309,0.13658484,-0.
 00013707,0.00006930,-0.04181059,0.00000684,-0.00000558,0.00523179,-0.0
 0000536,-0.00000368,0.00827044,0.00000094,-0.00000042,-0.00108364,-0.0
 0000715,-0.00000440,0.00565777,-0.00002030,0.00001197,0.00517952,0.000
 00090,-0.00000056,-0.00045889,0.00000035,0.00000302,-0.00404201,0.0000
 0209,0.00000005,-0.00023606,0.00000071,-0.00000008,0.00010982,0.000155
 49,-0.00007192,0.02775741,0.00621292,0.00177380,0.00000281,-0.27015578
 ,-0.12843308,-0.00019668,-0.01862386,-0.01861808,-0.00002157,-0.003463
 76,0.00358964,-0.00000521,0.00007805,0.00134141,0.00000093,0.00188269,
 0.00109013,-0.00000383,0.00256560,-0.00019814,0.00000488,0.00029235,0.
 00019925,-0.00000016,-0.00003603,-0.00008647,-0.00000006,-0.00000770,0
 .00007266,0.00000016,0.00047402,-0.00040682,0.00000344,0.28162747,-0.0
 2717337,-0.00995593,-0.00002236,-0.13026483,-0.13756023,-0.00011635,0.
 01344204,0.01102231,0.00001086,0.00322793,-0.00110206,0.00000084,0.000
 80896,-0.00099065,0.00000054,0.00137547,-0.00509023,-0.00000188,-0.001
 46665,0.00152278,0.00000035,-0.00158173,0.00058926,-0.00000114,0.00033
 093,-0.00024043,0.00000018,-0.00011422,-0.00078265,-0.00000026,0.00038
 291,0.00125020,0.00000160,0.14048148,0.14084072,-0.00000401,-0.0000018
 4,0.00286817,-0.00019708,-0.00011492,-0.03613917,-0.00001405,-0.000011
 98,0.00557477,-0.00000535,0.00000110,0.00502825,0.00000075,0.00000094,
 -0.00078257,-0.00000368,-0.00000221,0.00757987,0.00000459,0.00000120,-
 0.00435935,-0.00000059,0.00000017,0.00056498,0.00000005,-0.00000010,0.
 00001872,0.00000011,-0.00000007,-0.00019934,0.00000366,0.00000102,-0.0
 0448155,0.00021557,0.00012696,0.02501555,0.00007831,-0.00136069,0.0000
 0028,-0.00339722,-0.00362042,-0.00000684,-0.01868424,0.01827122,-0.000
 01301,-0.27364329,0.12662277,-0.00013957,0.00580243,-0.00167781,0.0000
 0173,0.00193346,-0.00097495,-0.00000409,0.00254446,0.00022583,0.000005
 02,0.00030492,-0.00023659,-0.00000034,-0.00002107,-0.00006793,0.000000
 25,-0.00000721,0.00008621,0.00000003,-0.00001946,0.00006605,0.00000047
 ,-0.00084652,0.00075929,-0.00000052,0.28545124,-0.00077955,-0.00099649
 ,-0.00000060,-0.00324736,-0.00122473,-0.00000380,-0.01382033,0.0111508
 6,-0.00000856,0.12839281,-0.13394620,0.00006818,0.02735929,-0.00961625
 ,0.00001656,-0.00132713,-0.00519165,-0.00000394,0.00146507,0.00151955,
 0.00000245,0.00152734,0.00074100,0.00000113,0.00023423,-0.00092289,0.0
 0000006,-0.00028695,-0.00019400,-0.00000027,0.00008968,0.00001674,0.00
 000022,-0.00077337,0.00051463,-0.00000046,-0.13848270,0.13692109,0.000
 00043,-0.00000098,-0.00078299,-0.00000675,-0.00000405,0.00500579,-0.00
 002065,0.00001434,0.00561661,-0.00013913,0.00006698,-0.03574608,0.0000
 0869,-0.00000420,0.00280121,-0.00000427,-0.00000367,0.00734509,0.00000
 532,0.00000154,-0.00441659,0.00000009,-0.00000017,0.00072013,0.0000003
 2,-0.00000020,-0.00038439,-0.00000007,0.,-0.00001799,0.00000048,0.0000
 0020,-0.00064803,-0.00000087,0.00000063,0.00012230,0.00015300,-0.00007
 206,0.02478167,-0.00336988,0.00395345,-0.00000581,0.00038526,0.0007406
 0,0.00000124,0.00138549,0.00114014,-0.00000461,0.00584813,0.00247227,0
 .00000107,-0.27494374,-0.12617412,-0.00019705,-0.01790698,-0.01538119,
 -0.00001951,0.00026207,0.00033754,0.00000056,-0.00218037,-0.00197751,0
 .00000072,0.00090447,0.00020157,0.00000032,0.00137513,-0.00071066,0.00
 000072,-0.00089642,-0.00088808,-0.00000110,-0.00001888,-0.00009798,0.0
 0000048,0.00050277,-0.00036983,0.00000343,0.28805967,0.00370286,-0.001
 03869,0.00000099,0.00076727,-0.00098615,0.00000058,0.00125231,-0.00408
 530,-0.00000204,-0.02675542,-0.01056836,-0.00002283,-0.12824203,-0.133
 28223,-0.00011322,0.01253536,0.01227578,0.00001080,-0.00149339,-0.0015
 7685,-0.00000134,0.00120927,0.00179458,0.00000247,-0.00089230,0.000069
 55,-0.00000088,0.00013700,-0.00414312,-0.00000116,0.00081249,0.0006328
 1,0.00000063,-0.00006432,0.00002663,0.00000013,0.00040456,0.00121723,0
 .00000164,0.13663614,0.13966614,-0.00000585,0.00000114,0.00598874,0.00
 000127,0.00000058,-0.00110556,-0.00000452,-0.00000210,0.00820341,-0.00
 000584,-0.00000198,0.00519091,-0.00019773,-0.00011188,-0.04100434,-0.0
 0001269,-0.00000894,0.00427749,0.00000013,-0.00000004,-0.00042185,0.00
 000175,0.,-0.00413280,-0.00000023,0.00000012,0.00062578,0.00000087,-0.
 00000186,0.00021051,-0.00000071,-0.00000054,0.00036482,0.00000048,0.00
 000011,-0.00072378,0.00000359,0.00000107,-0.00440698,0.00021900,0.0001
 2419,0.02704991,0.00048507,-0.00133533,-0.00000052,-0.00049701,-0.0001
 1955,0.,-0.00016874,-0.00010624,-0.00000023,0.00039628,0.00021063,0.00
 000028,-0.00041386,0.00072526,0.00000013,-0.00614175,-0.00118780,-0.00
 000888,0.00003923,0.00029989,0.00000012,0.00839046,-0.05500702,-0.0000
 1084,0.00041202,0.00779153,0.00000716,-0.06117553,0.10557250,-0.000011
 26,-0.00008637,-0.00009767,-0.00000026,0.00001944,-0.00011026,0.000000
 06,0.00000141,0.00001879,0.,0.00059329,-0.00000982,0.00000046,0.058146
 05,0.00020601,-0.00085932,-0.00000035,-0.00057834,0.00033878,-0.000000
 22,0.00013679,-0.00040251,-0.00000004,0.00022773,0.00013573,0.00000016
 ,-0.00011511,0.00075397,0.00000023,-0.00287277,0.00185642,-0.00000307,
 0.00000655,0.00052839,0.00000014,-0.00829948,-0.03336164,-0.00001620,0
 .00911303,0.00285287,0.00000953,0.05882773,-0.48996507,-0.00007585,-0.
 00014194,-0.00008139,-0.00000017,0.00003189,-0.00004436,0.00000005,-0.
 00001484,0.00001111,-0.00000001,0.00011765,-0.00000202,0.00000015,-0.0
 5664490,0.51823905,-0.00000006,-0.00000173,0.00064539,-0.00000042,0.00
 000022,-0.00039296,-0.00000003,-0.00000024,0.00009748,0.00000026,0.000
 00007,0.00010445,-0.00000016,0.00000092,-0.00021417,-0.00000927,-0.000
 00120,0.00433800,0.00000005,0.00000044,-0.00003507,0.00000152,-0.00005
 583,0.00402473,0.00000722,0.00000872,-0.00573621,-0.00002326,-0.000036
 84,-0.01484837,-0.00000025,-0.00000014,0.00018919,0.00000009,-0.000000
 09,-0.00008685,-0.00000001,0.00000001,0.00001025,0.00000053,0.00000003
 ,-0.00011626,0.00002377,0.00008564,0.01202039\\-0.00011335,-0.00008584
 ,0.00000072,-0.00009960,-0.00005545,-0.00000039,-0.00009484,-0.0002247
 1,-0.00000038,0.00014643,0.00008846,-0.00000013,0.00019084,-0.00024308
 ,0.00000014,0.00002448,0.00029594,0.00000313,0.00002117,0.00014185,0.0
 0000021,-0.00025199,0.00000384,-0.00000996,0.00012103,-0.00003704,0.00
 000336,0.00002703,0.00003752,0.00000323,0.00004347,0.00005058,-0.00000
 009,0.00003097,-0.00000279,0.00000010,-0.00001329,0.00000782,-0.000000
 04,-0.00003939,0.00005447,-0.00000003,0.00000705,-0.00003156,0.0000001
 3\\\@
 The archive entry for this job was punched.


 READER, WHETHER YOU BE DILETTANTE OR PROFESSOR ... SHOW YOURSELF TO BE
 MORE HUMAN THAN CRITICAL, AND THEN YOUR PLEASURE WILL INCREASE.
                                           -- DOMENICO SCARLATTI (1738)
 Job cpu time:       0 days 12 hours 41 minutes 59.8 seconds.
 Elapsed time:       0 days  0 hours 19 minutes  3.8 seconds.
 File lengths (MBytes):  RWF=    371 Int=      0 D2E=      0 Chk=     31 Scr=      1
 Normal termination of Gaussian 16 at Mon Sep  5 20:32:39 2022.
