 Entering Gaussian System, Link 0=g16
 Initial command:
 /usr/local/gaussian16c01/g16/l1.exe "/scr/dhuang/Gau-43759.inp" -scrdir="/scr/dhuang/"
 Entering Link 1 = /usr/local/gaussian16c01/g16/l1.exe PID=     43761.
  
 Copyright (c) 1988-2019, Gaussian, Inc.  All Rights Reserved.
  
 This is part of the Gaussian(R) 16 program.  It is based on
 the Gaussian(R) 09 system (copyright 2009, Gaussian, Inc.),
 the Gaussian(R) 03 system (copyright 2003, Gaussian, Inc.),
 the Gaussian(R) 98 system (copyright 1998, Gaussian, Inc.),
 the Gaussian(R) 94 system (copyright 1995, Gaussian, Inc.),
 the Gaussian 92(TM) system (copyright 1992, Gaussian, Inc.),
 the Gaussian 90(TM) system (copyright 1990, Gaussian, Inc.),
 the Gaussian 88(TM) system (copyright 1988, Gaussian, Inc.),
 the Gaussian 86(TM) system (copyright 1986, Carnegie Mellon
 University), and the Gaussian 82(TM) system (copyright 1983,
 Carnegie Mellon University). Gaussian is a federally registered
 trademark of Gaussian, Inc.
  
 This software contains proprietary and confidential information,
 including trade secrets, belonging to Gaussian, Inc.
  
 This software is provided under written license and may be
 used, copied, transmitted, or stored only in accord with that
 written license.
  
 The following legend is applicable only to US Government
 contracts under FAR:
  
                    RESTRICTED RIGHTS LEGEND
  
 Use, reproduction and disclosure by the US Government is
 subject to restrictions as set forth in subparagraphs (a)
 and (c) of the Commercial Computer Software - Restricted
 Rights clause in FAR 52.227-19.
  
 Gaussian, Inc.
 340 Quinnipiac St., Bldg. 40, Wallingford CT 06492
  
  
 ---------------------------------------------------------------
 Warning -- This program may not be used in any manner that
 competes with the business of Gaussian, Inc. or will provide
 assistance to any competitor of Gaussian, Inc.  The licensee
 of this program is prohibited from giving any competitor of
 Gaussian, Inc. access to this program.  By using this program,
 the user acknowledges that Gaussian, Inc. is engaged in the
 business of creating and licensing software in the field of
 computational chemistry and represents and warrants to the
 licensee that it is not a competitor of Gaussian, Inc. and that
 it will not use this program in any manner prohibited above.
 ---------------------------------------------------------------
  

 Cite this work as:
 Gaussian 16, Revision C.01,
 M. J. Frisch, G. W. Trucks, H. B. Schlegel, G. E. Scuseria, 
 M. A. Robb, J. R. Cheeseman, G. Scalmani, V. Barone, 
 G. A. Petersson, H. Nakatsuji, X. Li, M. Caricato, A. V. Marenich, 
 J. Bloino, B. G. Janesko, R. Gomperts, B. Mennucci, H. P. Hratchian, 
 J. V. Ortiz, A. F. Izmaylov, J. L. Sonnenberg, D. Williams-Young, 
 F. Ding, F. Lipparini, F. Egidi, J. Goings, B. Peng, A. Petrone, 
 T. Henderson, D. Ranasinghe, V. G. Zakrzewski, J. Gao, N. Rega, 
 G. Zheng, W. Liang, M. Hada, M. Ehara, K. Toyota, R. Fukuda, 
 J. Hasegawa, M. Ishida, T. Nakajima, Y. Honda, O. Kitao, H. Nakai, 
 T. Vreven, K. Throssell, J. A. Montgomery, Jr., J. E. Peralta, 
 F. Ogliaro, M. J. Bearpark, J. J. Heyd, E. N. Brothers, K. N. Kudin, 
 V. N. Staroverov, T. A. Keith, R. Kobayashi, J. Normand, 
 K. Raghavachari, A. P. Rendell, J. C. Burant, S. S. Iyengar, 
 J. Tomasi, M. Cossi, J. M. Millam, M. Klene, C. Adamo, R. Cammi, 
 J. W. Ochterski, R. L. Martin, K. Morokuma, O. Farkas, 
 J. B. Foresman, and D. J. Fox, Gaussian, Inc., Wallingford CT, 2019.
 
 ******************************************
 Gaussian 16:  ES64L-G16RevC.01  3-Jul-2019
                 5-Sep-2022 
 ******************************************
 %nprocshared=40
 Will use up to   40 processors via shared memory.
 %mem=10000MW
 %chk=4-NO2.chk
 ------------------------------------
 # opt freq M062x/aug-cc-pvtz pop=nbo
 ------------------------------------
 1/18=20,19=15,26=3,38=1/1,3;
 2/9=110,12=2,17=6,18=5,40=1/2;
 3/5=16,6=1,7=10,11=2,25=1,30=1,71=1,74=-55/1,2,3;
 4//1;
 5/5=2,38=5/2;
 6/7=2,8=2,9=2,10=2,28=1,40=1/1,7;
 7//1,2,3,16;
 1/18=20,19=15,26=3/3(2);
 2/9=110/2;
 99//99;
 2/9=110/2;
 3/5=16,6=1,7=10,11=2,25=1,30=1,71=1,74=-55/1,2,3;
 4/5=5,16=3,69=1/1;
 5/5=2,38=5/2;
 7//1,2,3,16;
 1/18=20,19=15,26=3/3(-5);
 2/9=110/2;
 6/7=2,8=2,9=2,10=2,19=2,28=1,40=1/1,7;
 99/9=1/99;
 ------------------
 4-NO2_benzoic-acid
 ------------------
 Symbolic Z-matrix:
 Charge =  0 Multiplicity = 1
 C                    -1.2067    0.0873    0.0037 
 C                    -1.0935   -1.2515    0.0022 
 C                     0.1082   -1.8628    0.0024 
 C                     1.2      -1.0753    0.0048 
 C                     1.0956    0.2616    0.0059 
 C                    -0.1082    0.861     0.0051 
 C                    -0.177     2.221     0.0048 
 O                    -1.1945    2.8801    0.0031 
 O                     0.9489    2.983     0.0037 
 N                     0.2197   -3.1148    0.0004 
 O                     1.3792   -3.7328    0.0009 
 O                    -0.8178   -3.9165   -0.0033 
 H                    -2.2181    0.5274    0.0028 
 H                    -2.0298   -1.8358    0.0004 
 H                     2.2181   -1.5014    0.0051 
 H                     2.0344    0.8407    0.0071 
 H                     0.6831    3.9165   -0.0071 
 

 GradGradGradGradGradGradGradGradGradGradGradGradGradGradGradGradGradGrad
 Berny optimization.
 Initialization pass.
                           ----------------------------
                           !    Initial Parameters    !
                           ! (Angstroms and Degrees)  !
 --------------------------                            --------------------------
 ! Name  Definition              Value          Derivative Info.                !
 --------------------------------------------------------------------------------
 ! R1    R(1,2)                  1.3436         estimate D2E/DX2                !
 ! R2    R(1,6)                  1.3436         estimate D2E/DX2                !
 ! R3    R(1,13)                 1.103          estimate D2E/DX2                !
 ! R4    R(2,3)                  1.3482         estimate D2E/DX2                !
 ! R5    R(2,14)                 1.1037         estimate D2E/DX2                !
 ! R6    R(3,4)                  1.3462         estimate D2E/DX2                !
 ! R7    R(3,10)                 1.257          estimate D2E/DX2                !
 ! R8    R(4,5)                  1.341          estimate D2E/DX2                !
 ! R9    R(4,15)                 1.1037         estimate D2E/DX2                !
 ! R10   R(5,6)                  1.3448         estimate D2E/DX2                !
 ! R11   R(5,16)                 1.103          estimate D2E/DX2                !
 ! R12   R(6,7)                  1.3617         estimate D2E/DX2                !
 ! R13   R(7,8)                  1.2123         estimate D2E/DX2                !
 ! R14   R(7,9)                  1.3595         estimate D2E/DX2                !
 ! R15   R(9,17)                 0.9707         estimate D2E/DX2                !
 ! R16   R(10,11)                1.3139         estimate D2E/DX2                !
 ! R17   R(10,12)                1.3112         estimate D2E/DX2                !
 ! A1    A(2,1,6)              120.3249         estimate D2E/DX2                !
 ! A2    A(2,1,13)             118.3487         estimate D2E/DX2                !
 ! A3    A(6,1,13)             121.3263         estimate D2E/DX2                !
 ! A4    A(1,2,3)              121.7953         estimate D2E/DX2                !
 ! A5    A(1,2,14)             117.1333         estimate D2E/DX2                !
 ! A6    A(3,2,14)             121.0714         estimate D2E/DX2                !
 ! A7    A(2,3,4)              117.2353         estimate D2E/DX2                !
 ! A8    A(2,3,10)             122.0514         estimate D2E/DX2                !
 ! A9    A(4,3,10)             120.7133         estimate D2E/DX2                !
 ! A10   A(3,4,5)              121.3372         estimate D2E/DX2                !
 ! A11   A(3,4,15)             121.4871         estimate D2E/DX2                !
 ! A12   A(5,4,15)             117.1757         estimate D2E/DX2                !
 ! A13   A(4,5,6)              120.935          estimate D2E/DX2                !
 ! A14   A(4,5,16)             117.2032         estimate D2E/DX2                !
 ! A15   A(6,5,16)             121.8618         estimate D2E/DX2                !
 ! A16   A(1,6,5)              118.3723         estimate D2E/DX2                !
 ! A17   A(1,6,7)              122.2619         estimate D2E/DX2                !
 ! A18   A(5,6,7)              119.3658         estimate D2E/DX2                !
 ! A19   A(6,7,8)              125.8297         estimate D2E/DX2                !
 ! A20   A(6,7,9)              121.1938         estimate D2E/DX2                !
 ! A21   A(8,7,9)              112.9764         estimate D2E/DX2                !
 ! A22   A(7,9,17)             108.1957         estimate D2E/DX2                !
 ! A23   A(3,10,11)            123.1462         estimate D2E/DX2                !
 ! A24   A(3,10,12)            122.605          estimate D2E/DX2                !
 ! A25   A(11,10,12)           114.2488         estimate D2E/DX2                !
 ! D1    D(6,1,2,3)              0.0179         estimate D2E/DX2                !
 ! D2    D(6,1,2,14)          -179.9595         estimate D2E/DX2                !
 ! D3    D(13,1,2,3)           179.962          estimate D2E/DX2                !
 ! D4    D(13,1,2,14)           -0.0154         estimate D2E/DX2                !
 ! D5    D(2,1,6,5)             -0.0457         estimate D2E/DX2                !
 ! D6    D(2,1,6,7)            179.9082         estimate D2E/DX2                !
 ! D7    D(13,1,6,5)          -179.9881         estimate D2E/DX2                !
 ! D8    D(13,1,6,7)            -0.0342         estimate D2E/DX2                !
 ! D9    D(1,2,3,4)              0.03           estimate D2E/DX2                !
 ! D10   D(1,2,3,10)          -179.9676         estimate D2E/DX2                !
 ! D11   D(14,2,3,4)          -179.9935         estimate D2E/DX2                !
 ! D12   D(14,2,3,10)            0.0089         estimate D2E/DX2                !
 ! D13   D(2,3,4,5)             -0.0502         estimate D2E/DX2                !
 ! D14   D(2,3,4,15)          -179.9987         estimate D2E/DX2                !
 ! D15   D(10,3,4,5)           179.9475         estimate D2E/DX2                !
 ! D16   D(10,3,4,15)           -0.0011         estimate D2E/DX2                !
 ! D17   D(2,3,10,11)         -179.9815         estimate D2E/DX2                !
 ! D18   D(2,3,10,12)            0.0665         estimate D2E/DX2                !
 ! D19   D(4,3,10,11)            0.0209         estimate D2E/DX2                !
 ! D20   D(4,3,10,12)         -179.931          estimate D2E/DX2                !
 ! D21   D(3,4,5,6)              0.0231         estimate D2E/DX2                !
 ! D22   D(3,4,5,16)          -179.9549         estimate D2E/DX2                !
 ! D23   D(15,4,5,6)           179.9737         estimate D2E/DX2                !
 ! D24   D(15,4,5,16)           -0.0043         estimate D2E/DX2                !
 ! D25   D(4,5,6,1)              0.0258         estimate D2E/DX2                !
 ! D26   D(4,5,6,7)           -179.9295         estimate D2E/DX2                !
 ! D27   D(16,5,6,1)          -179.9972         estimate D2E/DX2                !
 ! D28   D(16,5,6,7)             0.0475         estimate D2E/DX2                !
 ! D29   D(1,6,7,8)             -0.0114         estimate D2E/DX2                !
 ! D30   D(1,6,7,9)           -179.8749         estimate D2E/DX2                !
 ! D31   D(5,6,7,8)            179.942          estimate D2E/DX2                !
 ! D32   D(5,6,7,9)              0.0786         estimate D2E/DX2                !
 ! D33   D(6,7,9,17)           179.3309         estimate D2E/DX2                !
 ! D34   D(8,7,9,17)            -0.5489         estimate D2E/DX2                !
 --------------------------------------------------------------------------------
 Trust Radius=3.00D-01 FncErr=1.00D-07 GrdErr=1.00D-06 EigMax=2.50D+02 EigMin=1.00D-04
 Number of steps in this run=     86 maximum allowed number of steps=    102.
 GradGradGradGradGradGradGradGradGradGradGradGradGradGradGradGradGradGrad

                          Input orientation:                          
 ---------------------------------------------------------------------
 Center     Atomic      Atomic             Coordinates (Angstroms)
 Number     Number       Type             X           Y           Z
 ---------------------------------------------------------------------
      1          6           0       -1.206700    0.087300    0.003700
      2          6           0       -1.093500   -1.251500    0.002200
      3          6           0        0.108200   -1.862800    0.002400
      4          6           0        1.200000   -1.075300    0.004800
      5          6           0        1.095600    0.261600    0.005900
      6          6           0       -0.108200    0.861000    0.005100
      7          6           0       -0.177000    2.221000    0.004800
      8          8           0       -1.194500    2.880100    0.003100
      9          8           0        0.948900    2.983000    0.003700
     10          7           0        0.219700   -3.114800    0.000400
     11          8           0        1.379200   -3.732800    0.000900
     12          8           0       -0.817800   -3.916500   -0.003300
     13          1           0       -2.218100    0.527400    0.002800
     14          1           0       -2.029800   -1.835800    0.000400
     15          1           0        2.218100   -1.501400    0.005100
     16          1           0        2.034400    0.840700    0.007100
     17          1           0        0.683100    3.916500   -0.007100
 ---------------------------------------------------------------------
                    Distance matrix (angstroms):
                    1          2          3          4          5
     1  C    0.000000
     2  C    1.343578   0.000000
     3  C    2.351989   1.348247   0.000000
     4  C    2.672797   2.300260   1.346176   0.000000
     5  C    2.308889   2.661136   2.342658   1.340971   0.000000
     6  C    1.343620   2.330983   2.732384   2.336802   1.344773
     7  C    2.369168   3.591411   4.093747   3.572355   2.336399
     8  O    2.792827   4.132834   4.918549   4.623724   3.478665
     9  O    3.609943   4.701318   4.918186   4.066061   2.725352
    10  N    3.505435   2.279558   1.256957   2.262867   3.488167
    11  O    4.613031   3.503013   2.261049   2.663538   4.004458
    12  O    4.022649   2.679229   2.252819   3.484824   4.595400
    13  H    1.103004   2.104569   3.335375   3.775190   3.324345
    14  H    2.091846   1.103661   2.138171   3.318130   3.763940
    15  H    3.775344   3.321017   2.140630   1.103671   2.090018
    16  H    3.327514   3.763121   3.319515   2.089805   1.103043
    17  H    4.270156   5.464853   5.807832   5.018505   3.678127
                    6          7          8          9         10
     6  C    0.000000
     7  C    1.361739   0.000000
     8  O    2.292775   1.212321   0.000000
     9  O    2.370727   1.359521   2.145869   0.000000
    10  N    3.989301   5.350528   6.159448   6.141246   0.000000
    11  O    4.828600   6.153821   7.096082   6.729572   1.313912
    12  O    4.829918   6.170867   6.807034   7.122105   1.311161
    13  H    2.136111   2.652239   2.565727   4.007476   4.382750
    14  H    3.311389   4.459878   4.789305   5.665112   2.587681
    15  H    3.315510   4.426372   5.553682   4.660549   2.568401
    16  H    2.142697   2.606822   3.819027   2.401618   4.351915
    17  H    3.156325   1.901219   2.144670   0.970664   7.046558
                   11         12         13         14         15
    11  O    0.000000
    12  O    2.204671   0.000000
    13  H    5.575830   4.659305   0.000000
    14  H    3.901268   2.407960   2.370691   0.000000
    15  H    2.383887   3.879364   4.878105   4.261044   0.000000
    16  H    4.620198   5.546720   4.264028   4.866356   2.349294
    17  H    7.680912   7.975500   4.461284   6.359940   5.631165
                   16         17
    16  H    0.000000
    17  H    3.359577   0.000000
 Stoichiometry    C7H5NO4
 Framework group  C1[X(C7H5NO4)]
 Deg. of freedom    45
 Full point group                 C1      NOp   1
 Largest Abelian subgroup         C1      NOp   1
 Largest concise Abelian subgroup C1      NOp   1
                         Standard orientation:                         
 ---------------------------------------------------------------------
 Center     Atomic      Atomic             Coordinates (Angstroms)
 Number     Number       Type             X           Y           Z
 ---------------------------------------------------------------------
      1          6           0       -0.602387    1.219225   -0.001834
      2          6           0        0.740519    1.176759   -0.001131
      3          6           0        1.414318    0.008954   -0.000732
      4          6           0        0.685466   -1.122842   -0.001692
      5          6           0       -0.655079   -1.089063   -0.001989
      6          6           0       -1.317104    0.081466   -0.001798
      7          6           0       -2.678839    0.078478   -0.000650
      8          8           0       -3.390660    1.059820    0.000637
      9          8           0       -3.380427   -1.086024    0.001901
     10          7           0        2.670455   -0.036389    0.000527
     11          8           0        3.348720   -1.161699    0.000587
     12          8           0        3.416350    1.041933    0.002824
     13          1           0       -1.095191    2.206019   -0.001488
     14          1           0        1.274650    2.142559   -0.000505
     15          1           0        1.164643   -2.117065   -0.001423
     16          1           0       -1.183885   -2.057086   -0.002017
     17          1           0       -4.326634   -0.869794    0.013101
 ---------------------------------------------------------------------
 Rotational constants (GHZ):           3.1819774           0.5005527           0.4325148
 Standard basis: Aug-CC-pVTZ (5D, 7F)
 There are   785 symmetry adapted cartesian basis functions of A   symmetry.
 There are   667 symmetry adapted basis functions of A   symmetry.
   667 basis functions,   999 primitive gaussians,   785 cartesian basis functions
    43 alpha electrons       43 beta electrons
       nuclear repulsion energy       668.5492059218 Hartrees.
 NAtoms=   17 NActive=   17 NUniq=   17 SFac= 1.00D+00 NAtFMM=   60 NAOKFM=F Big=F
 Integral buffers will be    131072 words long.
 Raffenetti 2 integral format.
 Two-electron integral symmetry is turned on.
 One-electron integrals computed using PRISM.
 NBasis=   667 RedAO= T EigKep=  1.39D-06  NBF=   667
 NBsUse=   664 1.00D-06 EigRej=  7.62D-07 NBFU=   664
 ExpMin= 2.53D-02 ExpMax= 1.53D+04 ExpMxC= 5.22D+02 IAcc=3 IRadAn=         5 AccDes= 0.00D+00
 Harris functional with IExCor= 1009 and IRadAn=       5 diagonalized for initial guess.
 HarFok:  IExCor= 1009 AccDes= 0.00D+00 IRadAn=         5 IDoV= 1 UseB2=F ITyADJ=14
 ICtDFT=  3500011 ScaDFX=  1.000000  1.000000  1.000000  1.000000
 FoFCou: FMM=F IPFlag=           0 FMFlag=      100000 FMFlg1=           0
         NFxFlg=           0 DoJE=T BraDBF=F KetDBF=T FulRan=T
         wScrn=  0.000000 ICntrl=       500 IOpCl=  0 I1Cent=   200000004 NGrid=           0
         NMat0=    1 NMatS0=      1 NMatT0=    0 NMatD0=    1 NMtDS0=    0 NMtDT0=    0
 Petite list used in FoFCou.
 Requested convergence on RMS density matrix=1.00D-08 within 128 cycles.
 Requested convergence on MAX density matrix=1.00D-06.
 Requested convergence on             energy=1.00D-06.
 No special actions if energy rises.
 SCF Done:  E(RM062X) =  -625.240622060     A.U. after   15 cycles
            NFock= 15  Conv=0.25D-08     -V/T= 2.0034

 **********************************************************************

            Population analysis using the SCF Density.

 **********************************************************************

 Orbital symmetries:
       Occupied  (A) (A) (A) (A) (A) (A) (A) (A) (A) (A) (A) (A)
                 (A) (A) (A) (A) (A) (A) (A) (A) (A) (A) (A) (A)
                 (A) (A) (A) (A) (A) (A) (A) (A) (A) (A) (A) (A)
                 (A) (A) (A) (A) (A) (A) (A)
       Virtual   (A) (A) (A) (A) (A) (A) (A) (A) (A) (A) (A) (A)
                 (A) (A) (A) (A) (A) (A) (A) (A) (A) (A) (A) (A)
                 (A) (A) (A) (A) (A) (A) (A) (A) (A) (A) (A) (A)
                 (A) (A) (A) (A) (A) (A) (A) (A) (A) (A) (A) (A)
                 (A) (A) (A) (A) (A) (A) (A) (A) (A) (A) (A) (A)
                 (A) (A) (A) (A) (A) (A) (A) (A) (A) (A) (A) (A)
                 (A) (A) (A) (A) (A) (A) (A) (A) (A) (A) (A) (A)
                 (A) (A) (A) (A) (A) (A) (A) (A) (A) (A) (A) (A)
                 (A) (A) (A) (A) (A) (A) (A) (A) (A) (A) (A) (A)
                 (A) (A) (A) (A) (A) (A) (A) (A) (A) (A) (A) (A)
                 (A) (A) (A) (A) (A) (A) (A) (A) (A) (A) (A) (A)
                 (A) (A) (A) (A) (A) (A) (A) (A) (A) (A) (A) (A)
                 (A) (A) (A) (A) (A) (A) (A) (A) (A) (A) (A) (A)
                 (A) (A) (A) (A) (A) (A) (A) (A) (A) (A) (A) (A)
                 (A) (A) (A) (A) (A) (A) (A) (A) (A) (A) (A) (A)
                 (A) (A) (A) (A) (A) (A) (A) (A) (A) (A) (A) (A)
                 (A) (A) (A) (A) (A) (A) (A) (A) (A) (A) (A) (A)
                 (A) (A) (A) (A) (A) (A) (A) (A) (A) (A) (A) (A)
                 (A) (A) (A) (A) (A) (A) (A) (A) (A) (A) (A) (A)
                 (A) (A) (A) (A) (A) (A) (A) (A) (A) (A) (A) (A)
                 (A) (A) (A) (A) (A) (A) (A) (A) (A) (A) (A) (A)
                 (A) (A) (A) (A) (A) (A) (A) (A) (A) (A) (A) (A)
                 (A) (A) (A) (A) (A) (A) (A) (A) (A) (A) (A) (A)
                 (A) (A) (A) (A) (A) (A) (A) (A) (A) (A) (A) (A)
                 (A) (A) (A) (A) (A) (A) (A) (A) (A) (A) (A) (A)
                 (A) (A) (A) (A) (A) (A) (A) (A) (A) (A) (A) (A)
                 (A) (A) (A) (A) (A) (A) (A) (A) (A) (A) (A) (A)
                 (A) (A) (A) (A) (A) (A) (A) (A) (A) (A) (A) (A)
                 (A) (A) (A) (A) (A) (A) (A) (A) (A) (A) (A) (A)
                 (A) (A) (A) (A) (A) (A) (A) (A) (A) (A) (A) (A)
                 (A) (A) (A) (A) (A) (A) (A) (A) (A) (A) (A) (A)
                 (A) (A) (A) (A) (A) (A) (A) (A) (A) (A) (A) (A)
                 (A) (A) (A) (A) (A) (A) (A) (A) (A) (A) (A) (A)
                 (A) (A) (A) (A) (A) (A) (A) (A) (A) (A) (A) (A)
                 (A) (A) (A) (A) (A) (A) (A) (A) (A) (A) (A) (A)
                 (A) (A) (A) (A) (A) (A) (A) (A) (A) (A) (A) (A)
                 (A) (A) (A) (A) (A) (A) (A) (A) (A) (A) (A) (A)
                 (A) (A) (A) (A) (A) (A) (A) (A) (A) (A) (A) (A)
                 (A) (A) (A) (A) (A) (A) (A) (A) (A) (A) (A) (A)
                 (A) (A) (A) (A) (A) (A) (A) (A) (A) (A) (A) (A)
                 (A) (A) (A) (A) (A) (A) (A) (A) (A) (A) (A) (A)
                 (A) (A) (A) (A) (A) (A) (A) (A) (A) (A) (A) (A)
                 (A) (A) (A) (A) (A) (A) (A) (A) (A) (A) (A) (A)
                 (A) (A) (A) (A) (A) (A) (A) (A) (A) (A) (A) (A)
                 (A) (A) (A) (A) (A) (A) (A) (A) (A) (A) (A) (A)
                 (A) (A) (A) (A) (A) (A) (A) (A) (A) (A) (A) (A)
                 (A) (A) (A) (A) (A) (A) (A) (A) (A) (A) (A) (A)
                 (A) (A) (A) (A) (A) (A) (A) (A) (A) (A) (A) (A)
                 (A) (A) (A) (A) (A) (A) (A) (A) (A) (A) (A) (A)
                 (A) (A) (A) (A) (A) (A) (A) (A) (A) (A) (A) (A)
                 (A) (A) (A) (A) (A) (A) (A) (A) (A) (A) (A) (A)
                 (A) (A) (A) (A) (A) (A) (A) (A) (A)
 The electronic state is 1-A.
 Alpha  occ. eigenvalues --  -19.68743 -19.67441 -19.67367 -19.63706 -15.00351
 Alpha  occ. eigenvalues --  -10.69946 -10.62535 -10.59618 -10.59450 -10.59318
 Alpha  occ. eigenvalues --  -10.59006 -10.58868  -1.32997  -1.26464  -1.15268
 Alpha  occ. eigenvalues --   -1.13146  -1.07342  -1.00755  -0.91501  -0.89806
 Alpha  occ. eigenvalues --   -0.77490  -0.75560  -0.70957  -0.67126  -0.64929
 Alpha  occ. eigenvalues --   -0.63135  -0.62650  -0.59468  -0.57473  -0.56125
 Alpha  occ. eigenvalues --   -0.55107  -0.53786  -0.52520  -0.49814  -0.49455
 Alpha  occ. eigenvalues --   -0.44901  -0.42055  -0.42017  -0.38319  -0.37976
 Alpha  occ. eigenvalues --   -0.37514  -0.37411  -0.36754
 Alpha virt. eigenvalues --   -0.12807  -0.02339  -0.01762  -0.01636  -0.00180
 Alpha virt. eigenvalues --    0.00188   0.01757   0.02247   0.02486   0.02795
 Alpha virt. eigenvalues --    0.04900   0.05097   0.05435   0.05946   0.06540
 Alpha virt. eigenvalues --    0.07067   0.07122   0.07461   0.08485   0.08781
 Alpha virt. eigenvalues --    0.09219   0.09467   0.09949   0.10196   0.10404
 Alpha virt. eigenvalues --    0.10517   0.10772   0.11767   0.12168   0.13033
 Alpha virt. eigenvalues --    0.13452   0.14388   0.15009   0.15143   0.15572
 Alpha virt. eigenvalues --    0.15841   0.16981   0.18016   0.18420   0.18635
 Alpha virt. eigenvalues --    0.18873   0.19439   0.20041   0.20240   0.20509
 Alpha virt. eigenvalues --    0.20806   0.21133   0.21688   0.22302   0.22582
 Alpha virt. eigenvalues --    0.22799   0.22852   0.23242   0.23554   0.23858
 Alpha virt. eigenvalues --    0.24247   0.24627   0.25611   0.26044   0.26707
 Alpha virt. eigenvalues --    0.27183   0.27246   0.27883   0.28609   0.28795
 Alpha virt. eigenvalues --    0.29540   0.29552   0.30676   0.30835   0.31205
 Alpha virt. eigenvalues --    0.31758   0.32670   0.32879   0.33286   0.33419
 Alpha virt. eigenvalues --    0.34576   0.35034   0.35334   0.35356   0.36441
 Alpha virt. eigenvalues --    0.36602   0.36821   0.37075   0.37590   0.38995
 Alpha virt. eigenvalues --    0.39095   0.39549   0.39695   0.40517   0.41101
 Alpha virt. eigenvalues --    0.41451   0.42381   0.43493   0.43932   0.44196
 Alpha virt. eigenvalues --    0.45450   0.45564   0.46718   0.46983   0.47830
 Alpha virt. eigenvalues --    0.48204   0.48739   0.49074   0.50399   0.50451
 Alpha virt. eigenvalues --    0.51782   0.51918   0.52926   0.54034   0.54805
 Alpha virt. eigenvalues --    0.55505   0.56282   0.56514   0.56633   0.57432
 Alpha virt. eigenvalues --    0.59046   0.59587   0.60518   0.60747   0.61003
 Alpha virt. eigenvalues --    0.62698   0.63139   0.63238   0.63933   0.64877
 Alpha virt. eigenvalues --    0.65460   0.65562   0.65885   0.65970   0.68046
 Alpha virt. eigenvalues --    0.68185   0.68379   0.69236   0.70140   0.70644
 Alpha virt. eigenvalues --    0.71277   0.72198   0.72403   0.73120   0.73423
 Alpha virt. eigenvalues --    0.73868   0.74566   0.75489   0.75987   0.76007
 Alpha virt. eigenvalues --    0.76707   0.77072   0.77739   0.78037   0.78607
 Alpha virt. eigenvalues --    0.78992   0.79396   0.79930   0.80914   0.81222
 Alpha virt. eigenvalues --    0.81943   0.82123   0.82796   0.83167   0.83694
 Alpha virt. eigenvalues --    0.84055   0.84778   0.85483   0.85605   0.86272
 Alpha virt. eigenvalues --    0.87402   0.88214   0.88806   0.89259   0.90221
 Alpha virt. eigenvalues --    0.90732   0.91192   0.92174   0.92915   0.92977
 Alpha virt. eigenvalues --    0.94117   0.94830   0.94879   0.95471   0.97053
 Alpha virt. eigenvalues --    0.97743   0.98223   0.98276   0.98764   0.99368
 Alpha virt. eigenvalues --    0.99738   1.00669   1.00908   1.01398   1.02232
 Alpha virt. eigenvalues --    1.02786   1.03685   1.03811   1.04050   1.04738
 Alpha virt. eigenvalues --    1.05097   1.05514   1.07086   1.08195   1.09448
 Alpha virt. eigenvalues --    1.10085   1.11077   1.11314   1.12557   1.12727
 Alpha virt. eigenvalues --    1.14301   1.14916   1.15031   1.16485   1.16632
 Alpha virt. eigenvalues --    1.17603   1.17995   1.19897   1.19945   1.21662
 Alpha virt. eigenvalues --    1.22028   1.22812   1.23237   1.23570   1.23863
 Alpha virt. eigenvalues --    1.24276   1.26640   1.27434   1.27485   1.29803
 Alpha virt. eigenvalues --    1.31277   1.31782   1.32677   1.33637   1.33835
 Alpha virt. eigenvalues --    1.33996   1.35170   1.37401   1.38357   1.39750
 Alpha virt. eigenvalues --    1.41575   1.42066   1.42213   1.42441   1.43534
 Alpha virt. eigenvalues --    1.45054   1.46487   1.46680   1.47292   1.48372
 Alpha virt. eigenvalues --    1.48677   1.50345   1.50909   1.51433   1.53230
 Alpha virt. eigenvalues --    1.53460   1.53650   1.55275   1.56453   1.57123
 Alpha virt. eigenvalues --    1.57264   1.58208   1.60420   1.62404   1.63441
 Alpha virt. eigenvalues --    1.64063   1.64603   1.65203   1.66164   1.66267
 Alpha virt. eigenvalues --    1.66792   1.68798   1.70361   1.70715   1.71813
 Alpha virt. eigenvalues --    1.72543   1.74018   1.77063   1.77160   1.77993
 Alpha virt. eigenvalues --    1.78681   1.80824   1.80923   1.81481   1.82790
 Alpha virt. eigenvalues --    1.83590   1.84036   1.84621   1.85054   1.87779
 Alpha virt. eigenvalues --    1.87927   1.88876   1.89799   1.90913   1.91684
 Alpha virt. eigenvalues --    1.92940   1.93241   1.94188   1.95282   1.96441
 Alpha virt. eigenvalues --    1.97551   2.00038   2.00516   2.01419   2.01900
 Alpha virt. eigenvalues --    2.02152   2.04749   2.05828   2.07111   2.07535
 Alpha virt. eigenvalues --    2.09905   2.10356   2.11166   2.12041   2.12655
 Alpha virt. eigenvalues --    2.12919   2.13057   2.14298   2.14435   2.16130
 Alpha virt. eigenvalues --    2.16989   2.18356   2.20831   2.21863   2.22433
 Alpha virt. eigenvalues --    2.24571   2.25572   2.26946   2.28082   2.28765
 Alpha virt. eigenvalues --    2.28988   2.30678   2.31911   2.35300   2.37061
 Alpha virt. eigenvalues --    2.37462   2.37723   2.37910   2.38676   2.40364
 Alpha virt. eigenvalues --    2.41386   2.42285   2.43444   2.43854   2.44907
 Alpha virt. eigenvalues --    2.45204   2.46773   2.47384   2.48644   2.49696
 Alpha virt. eigenvalues --    2.50299   2.52040   2.53007   2.54413   2.56614
 Alpha virt. eigenvalues --    2.57699   2.58502   2.59789   2.61852   2.64820
 Alpha virt. eigenvalues --    2.68811   2.69101   2.70940   2.71662   2.73595
 Alpha virt. eigenvalues --    2.74591   2.75620   2.77591   2.77783   2.79195
 Alpha virt. eigenvalues --    2.80680   2.82003   2.82873   2.85917   2.86646
 Alpha virt. eigenvalues --    2.90589   2.92060   2.92859   2.94964   2.95773
 Alpha virt. eigenvalues --    2.96712   2.97316   2.97987   2.98226   3.00707
 Alpha virt. eigenvalues --    3.02001   3.05011   3.05053   3.06327   3.06945
 Alpha virt. eigenvalues --    3.09684   3.09825   3.12002   3.12832   3.13540
 Alpha virt. eigenvalues --    3.13715   3.14992   3.15088   3.16829   3.17512
 Alpha virt. eigenvalues --    3.19309   3.20076   3.21513   3.22428   3.23182
 Alpha virt. eigenvalues --    3.24973   3.26240   3.27003   3.28470   3.29867
 Alpha virt. eigenvalues --    3.30033   3.32606   3.33869   3.34293   3.37950
 Alpha virt. eigenvalues --    3.40972   3.42681   3.42959   3.44173   3.45688
 Alpha virt. eigenvalues --    3.47425   3.48393   3.49391   3.50639   3.52348
 Alpha virt. eigenvalues --    3.53296   3.53709   3.55244   3.56772   3.56952
 Alpha virt. eigenvalues --    3.58876   3.58897   3.60228   3.61849   3.64023
 Alpha virt. eigenvalues --    3.64891   3.66140   3.68528   3.70332   3.71421
 Alpha virt. eigenvalues --    3.72659   3.74863   3.75160   3.76328   3.78105
 Alpha virt. eigenvalues --    3.80341   3.81679   3.83856   3.85233   3.87055
 Alpha virt. eigenvalues --    3.87164   3.88121   3.90613   3.90812   3.91372
 Alpha virt. eigenvalues --    3.93391   3.93931   3.95284   3.95536   3.96099
 Alpha virt. eigenvalues --    3.97155   3.98190   3.98817   4.00532   4.02099
 Alpha virt. eigenvalues --    4.04769   4.05640   4.08291   4.08573   4.12711
 Alpha virt. eigenvalues --    4.13349   4.15037   4.17452   4.18153   4.18319
 Alpha virt. eigenvalues --    4.18795   4.20287   4.21483   4.22067   4.25168
 Alpha virt. eigenvalues --    4.25348   4.30374   4.30500   4.32350   4.38580
 Alpha virt. eigenvalues --    4.38596   4.40429   4.41897   4.42166   4.42429
 Alpha virt. eigenvalues --    4.43294   4.49308   4.51416   4.54095   4.55122
 Alpha virt. eigenvalues --    4.55947   4.57059   4.59099   4.59732   4.63382
 Alpha virt. eigenvalues --    4.64236   4.64396   4.65002   4.67349   4.67563
 Alpha virt. eigenvalues --    4.70287   4.70990   4.73245   4.73802   4.76639
 Alpha virt. eigenvalues --    4.77127   4.78642   4.79224   4.83732   4.84622
 Alpha virt. eigenvalues --    4.86863   4.89820   4.90815   4.91746   4.93007
 Alpha virt. eigenvalues --    4.96634   4.98819   5.00901   5.01247   5.04093
 Alpha virt. eigenvalues --    5.05097   5.09246   5.10979   5.11914   5.13512
 Alpha virt. eigenvalues --    5.13608   5.18092   5.23045   5.23591   5.30154
 Alpha virt. eigenvalues --    5.31907   5.34742   5.37074   5.37233   5.39369
 Alpha virt. eigenvalues --    5.41178   5.50031   5.54073   5.54781   5.56028
 Alpha virt. eigenvalues --    5.61801   5.63471   5.76761   5.79451   5.82743
 Alpha virt. eigenvalues --    5.90711   5.91495   5.93746   6.01458   6.04791
 Alpha virt. eigenvalues --    6.07998   6.14947   6.16302   6.17097   6.20986
 Alpha virt. eigenvalues --    6.21255   6.26623   6.27100   6.29412   6.31325
 Alpha virt. eigenvalues --    6.32339   6.35016   6.36016   6.36864   6.38469
 Alpha virt. eigenvalues --    6.39650   6.41765   6.47715   6.49189   6.52079
 Alpha virt. eigenvalues --    6.53407   6.55683   6.58911   6.63212   6.64719
 Alpha virt. eigenvalues --    6.65508   6.65592   6.70306   6.73743   6.76878
 Alpha virt. eigenvalues --    6.77987   6.80458   6.81759   6.83075   6.83288
 Alpha virt. eigenvalues --    6.85289   6.85980   6.87311   6.91308   6.95961
 Alpha virt. eigenvalues --    7.04858   7.05395   7.05877   7.07652   7.09694
 Alpha virt. eigenvalues --    7.12785   7.17817   7.30310   7.35181   7.36449
 Alpha virt. eigenvalues --    7.40340   7.44138   7.49614   7.54310   7.70069
 Alpha virt. eigenvalues --    7.86024   7.87339   7.89128   8.03279  14.00440
 Alpha virt. eigenvalues --   14.97309  15.44255  16.09152  17.15257  17.95559
 Alpha virt. eigenvalues --   18.19116  18.58958  20.29270  20.39465  20.47912
 Alpha virt. eigenvalues --   21.35936
          Condensed to atoms (all electrons):
               1          2          3          4          5          6
     1  C    9.239788  -0.733042   0.157464  -0.579958   0.432126  -1.087015
     2  C   -0.733042   7.673190  -0.463015   0.141732  -0.574674   0.268082
     3  C    0.157464  -0.463015   7.375608  -0.545865  -0.004677  -0.386448
     4  C   -0.579958   0.141732  -0.545865   7.916909  -0.589950   0.153271
     5  C    0.432126  -0.574674  -0.004677  -0.589950   8.994272  -0.918101
     6  C   -1.087015   0.268082  -0.386448   0.153271  -0.918101   7.454702
     7  C   -0.526335   0.061739   0.078063   0.186829  -0.753874  -0.765184
     8  O    0.027170  -0.018890  -0.007898  -0.012014   0.024796  -0.213141
     9  O    0.019520   0.002511  -0.018192   0.005445  -0.041706  -0.065071
    10  N    0.260681  -0.502580  -0.531179  -0.467562   0.261521  -0.096204
    11  O   -0.028322   0.013437   0.089536   0.064066  -0.105793   0.032010
    12  O   -0.105163   0.075579   0.079656   0.013145  -0.024529   0.026845
    13  H    0.636304  -0.677834   0.128928   0.003335   0.139455  -0.582237
    14  H   -0.694047   0.734346  -0.525863   0.015833  -0.036424   0.133832
    15  H   -0.027012   0.048694  -0.589334   0.688105  -0.547708   0.103496
    16  H    0.164069  -0.053341   0.247515  -0.746749   0.470728  -0.435380
    17  H   -0.027992   0.001563   0.003378  -0.001629  -0.014554   0.048909
               7          8          9         10         11         12
     1  C   -0.526335   0.027170   0.019520   0.260681  -0.028322  -0.105163
     2  C    0.061739  -0.018890   0.002511  -0.502580   0.013437   0.075579
     3  C    0.078063  -0.007898  -0.018192  -0.531179   0.089536   0.079656
     4  C    0.186829  -0.012014   0.005445  -0.467562   0.064066   0.013145
     5  C   -0.753874   0.024796  -0.041706   0.261521  -0.105793  -0.024529
     6  C   -0.765184  -0.213141  -0.065071  -0.096204   0.032010   0.026845
     7  C    7.484485  -0.080014   0.054052  -0.013351   0.001151  -0.000187
     8  O   -0.080014   9.386626  -0.127371   0.001290   0.000035   0.000014
     9  O    0.054052  -0.127371   8.617893   0.002091   0.000038   0.000062
    10  N   -0.013351   0.001290   0.002091   7.691391  -0.040006  -0.044442
    11  O    0.001151   0.000035   0.000038  -0.040006   8.773654  -0.192246
    12  O   -0.000187   0.000014   0.000062  -0.044442  -0.192246   8.776763
    13  H    0.159301   0.038438   0.006742  -0.006130   0.000667  -0.002365
    14  H   -0.023473  -0.005843  -0.000862   0.082883  -0.010969   0.003943
    15  H   -0.016626   0.000075  -0.001704   0.106581  -0.000506  -0.010509
    16  H    0.095561   0.009913  -0.030821  -0.027923  -0.000566   0.000880
    17  H    0.046259  -0.101481   0.166631  -0.000361   0.000027   0.000004
              13         14         15         16         17
     1  C    0.636304  -0.694047  -0.027012   0.164069  -0.027992
     2  C   -0.677834   0.734346   0.048694  -0.053341   0.001563
     3  C    0.128928  -0.525863  -0.589334   0.247515   0.003378
     4  C    0.003335   0.015833   0.688105  -0.746749  -0.001629
     5  C    0.139455  -0.036424  -0.547708   0.470728  -0.014554
     6  C   -0.582237   0.133832   0.103496  -0.435380   0.048909
     7  C    0.159301  -0.023473  -0.016626   0.095561   0.046259
     8  O    0.038438  -0.005843   0.000075   0.009913  -0.101481
     9  O    0.006742  -0.000862  -0.001704  -0.030821   0.166631
    10  N   -0.006130   0.082883   0.106581  -0.027923  -0.000361
    11  O    0.000667  -0.010969  -0.000506  -0.000566   0.000027
    12  O   -0.002365   0.003943  -0.010509   0.000880   0.000004
    13  H    1.437908  -0.268882  -0.003054  -0.003696  -0.002442
    14  H   -0.268882   1.140498   0.012748  -0.004427   0.000198
    15  H   -0.003054   0.012748   1.044463  -0.218300  -0.000046
    16  H   -0.003696  -0.004427  -0.218300   1.472617  -0.005014
    17  H   -0.002442   0.000198  -0.000046  -0.005014   0.592851
 Mulliken charges:
               1
     1  C   -1.128233
     2  C    0.002503
     3  C    0.912323
     4  C   -0.244942
     5  C   -0.710909
     6  C    2.327634
     7  C    0.011604
     8  O   -0.921705
     9  O   -0.589260
    10  N    0.323301
    11  O   -0.596212
    12  O   -0.597450
    13  H   -0.004435
    14  H    0.446508
    15  H    0.410638
    16  H    0.064934
    17  H    0.293699
 Sum of Mulliken charges =   0.00000
 Mulliken charges with hydrogens summed into heavy atoms:
               1
     1  C   -1.132668
     2  C    0.449011
     3  C    0.912323
     4  C    0.165696
     5  C   -0.645975
     6  C    2.327634
     7  C    0.011604
     8  O   -0.921705
     9  O   -0.295560
    10  N    0.323301
    11  O   -0.596212
    12  O   -0.597450
 Electronic spatial extent (au):  <R**2>=           2326.8558
 Charge=              0.0000 electrons
 Dipole moment (field-independent basis, Debye):
    X=             -3.9714    Y=             -0.9879    Z=              0.0094  Tot=              4.0924
 Quadrupole moment (field-independent basis, Debye-Ang):
   XX=            -86.4537   YY=            -66.0558   ZZ=            -67.1733
   XY=              6.5154   XZ=             -0.0978   YZ=             -0.0200
 Traceless Quadrupole moment (field-independent basis, Debye-Ang):
   XX=            -13.2261   YY=              7.1718   ZZ=              6.0543
   XY=              6.5154   XZ=             -0.0978   YZ=             -0.0200
 Octapole moment (field-independent basis, Debye-Ang**2):
  XXX=           -109.3944  YYY=              0.0837  ZZZ=              0.0405  XYY=              1.9521
  XXY=            -27.6189  XXZ=              0.3678  XZZ=              1.4407  YZZ=             -0.2157
  YYZ=              0.0053  XYZ=              0.0752
 Hexadecapole moment (field-independent basis, Debye-Ang**3):
 XXXX=          -2404.6068 YYYY=           -425.5247 ZZZZ=            -64.7984 XXXY=            140.2236
 XXXZ=             -2.2581 YYYX=              7.9566 YYYZ=             -0.0108 ZZZX=             -0.0343
 ZZZY=             -0.0082 XXYY=           -523.9153 XXZZ=           -387.4574 YYZZ=            -93.2493
 XXYZ=             -0.4715 YYXZ=             -0.0798 ZZXY=             -0.1514
 N-N= 6.685492059218D+02 E-N=-2.800228771429D+03  KE= 6.230985729029D+02
 ******************************Gaussian NBO Version 3.1******************************
             N A T U R A L   A T O M I C   O R B I T A L   A N D
          N A T U R A L   B O N D   O R B I T A L   A N A L Y S I S
 ******************************Gaussian NBO Version 3.1******************************
       /RESON  / : Allow strongly delocalized NBO set

 Analyzing the SCF density

 Job title: 4-NO2_benzoic-acid                                              

 Storage needed:   1337455 in NPA,   1781892 in NBO (********** available)
 GSVD:  LWork=       62959 too small for GESVD, short by      696986 words or      696986 for optimal perf.
 Remove ICRem=  104 ICRemI=  105 L=1 PNAO number  108 atom    3 type 153 NPNAO=  667
   due to symmetric orthogonalization 2, value= 0.00D+00.
 Remove ICRem=  104 ICRemI=  105 L=1 PNAO number  104 atom    3 type 152 NPNAO=  666
   due to symmetric orthogonalization 2, value= 0.00D+00.
 Remove ICRem=  104 ICRemI=  105 L=1 PNAO number  100 atom    3 type 151 NPNAO=  665
   due to symmetric orthogonalization 2, value= 0.00D+00.
 GSVD:  LWork=       68185 too small for GESVD, short by      681335 words or      681335 for optimal perf.

 Computed number of electrons   85.99996778 does not match expected value of    86.


 NATURAL POPULATIONS:  Natural atomic orbital occupancies 
                                                          
   NAO  Atom  No  lang   Type(AO)    Occupancy      Energy
 ----------------------------------------------------------
     1    C    1  S      Cor( 1S)     1.99909     -10.42204
     2    C    1  S      Val( 2S)     0.94579      -0.21748
     3    C    1  S      Ryd( 4S)     0.00140       1.85604
     4    C    1  S      Ryd( 5S)     0.00012       2.75377
     5    C    1  S      Ryd( 3S)     0.00002       1.71069
     6    C    1  px     Val( 2p)     1.07693      -0.10469
     7    C    1  px     Ryd( 4p)     0.00368       1.84920
     8    C    1  px     Ryd( 3p)     0.00009       1.15500
     9    C    1  px     Ryd( 5p)     0.00009       2.33592
    10    C    1  py     Val( 2p)     1.15182      -0.11115
    11    C    1  py     Ryd( 4p)     0.00444       1.79944
    12    C    1  py     Ryd( 3p)     0.00007       1.01963
    13    C    1  py     Ryd( 5p)     0.00004       2.34620
    14    C    1  pz     Val( 2p)     0.94222      -0.15678
    15    C    1  pz     Ryd( 4p)     0.00056       1.04001
    16    C    1  pz     Ryd( 3p)     0.00018       0.63273
    17    C    1  pz     Ryd( 5p)     0.00005       1.67583
    18    C    1  dxy    Ryd( 4d)     0.00159       3.02015
    19    C    1  dxy    Ryd( 5d)     0.00022       3.99719
    20    C    1  dxy    Ryd( 3d)     0.00009       2.72469
    21    C    1  dxz    Ryd( 3d)     0.00078       1.59202
    22    C    1  dxz    Ryd( 5d)     0.00002       3.01707
    23    C    1  dxz    Ryd( 4d)     0.00002       1.75348
    24    C    1  dyz    Ryd( 3d)     0.00033       1.45954
    25    C    1  dyz    Ryd( 5d)     0.00005       3.08048
    26    C    1  dyz    Ryd( 4d)     0.00003       1.54690
    27    C    1  dx2y2  Ryd( 4d)     0.00178       3.39220
    28    C    1  dx2y2  Ryd( 5d)     0.00027       4.09429
    29    C    1  dx2y2  Ryd( 3d)     0.00007       2.44711
    30    C    1  dz2    Ryd( 3d)     0.00096       1.93356
    31    C    1  dz2    Ryd( 5d)     0.00008       3.90601
    32    C    1  dz2    Ryd( 4d)     0.00008       3.52745
    33    C    1  f(0)   Ryd( 5f)     0.00012       3.39974
    34    C    1  f(0)   Ryd( 4f)     0.00003       2.33092
    35    C    1  f(C1)  Ryd( 5f)     0.00026       3.77482
    36    C    1  f(C1)  Ryd( 4f)     0.00002       3.12959
    37    C    1  f(S1)  Ryd( 5f)     0.00020       3.65024
    38    C    1  f(S1)  Ryd( 4f)     0.00002       3.16456
    39    C    1  f(C2)  Ryd( 5f)     0.00001       3.49195
    40    C    1  f(C2)  Ryd( 4f)     0.00001       2.55833
    41    C    1  f(S2)  Ryd( 5f)     0.00002       3.55017
    42    C    1  f(S2)  Ryd( 4f)     0.00002       2.44192
    43    C    1  f(C3)  Ryd( 4f)     0.00014       4.16541
    44    C    1  f(C3)  Ryd( 5f)     0.00003       6.51801
    45    C    1  f(S3)  Ryd( 5f)     0.00016       4.36801
    46    C    1  f(S3)  Ryd( 4f)     0.00008       4.12309
 
    47    C    2  S      Cor( 1S)     1.99913     -10.42812
    48    C    2  S      Val( 2S)     0.95329      -0.22687
    49    C    2  S      Ryd( 3S)     0.00159       1.68383
    50    C    2  S      Ryd( 5S)     0.00013       3.15532
    51    C    2  S      Ryd( 4S)     0.00004       2.16260
    52    C    2  px     Val( 2p)     1.09329      -0.11070
    53    C    2  px     Ryd( 4p)     0.00531       1.60895
    54    C    2  px     Ryd( 3p)     0.00023       1.33405
    55    C    2  px     Ryd( 5p)     0.00010       2.94513
    56    C    2  py     Val( 2p)     1.13129      -0.10775
    57    C    2  py     Ryd( 4p)     0.00408       1.69089
    58    C    2  py     Ryd( 3p)     0.00019       1.08986
    59    C    2  py     Ryd( 5p)     0.00006       2.54476
    60    C    2  pz     Val( 2p)     0.92934      -0.16058
    61    C    2  pz     Ryd( 3p)     0.00106       0.87795
    62    C    2  pz     Ryd( 4p)     0.00049       1.02291
    63    C    2  pz     Ryd( 5p)     0.00006       1.74297
    64    C    2  dxy    Ryd( 3d)     0.00149       2.52834
    65    C    2  dxy    Ryd( 5d)     0.00019       3.95888
    66    C    2  dxy    Ryd( 4d)     0.00010       3.43044
    67    C    2  dxz    Ryd( 3d)     0.00050       1.37500
    68    C    2  dxz    Ryd( 5d)     0.00008       3.19958
    69    C    2  dxz    Ryd( 4d)     0.00003       1.94156
    70    C    2  dyz    Ryd( 3d)     0.00015       1.28437
    71    C    2  dyz    Ryd( 5d)     0.00008       3.23275
    72    C    2  dyz    Ryd( 4d)     0.00005       1.77034
    73    C    2  dx2y2  Ryd( 4d)     0.00175       3.28294
    74    C    2  dx2y2  Ryd( 5d)     0.00017       3.97042
    75    C    2  dx2y2  Ryd( 3d)     0.00004       3.17529
    76    C    2  dz2    Ryd( 3d)     0.00110       1.67712
    77    C    2  dz2    Ryd( 4d)     0.00022       4.24567
    78    C    2  dz2    Ryd( 5d)     0.00006       4.53442
    79    C    2  f(0)   Ryd( 4f)     0.00019       1.51827
    80    C    2  f(0)   Ryd( 5f)     0.00013       3.31757
    81    C    2  f(C1)  Ryd( 4f)     0.00055       2.05137
    82    C    2  f(C1)  Ryd( 5f)     0.00022       3.53125
    83    C    2  f(S1)  Ryd( 4f)     0.00052       1.81068
    84    C    2  f(S1)  Ryd( 5f)     0.00014       3.42015
    85    C    2  f(C2)  Ryd( 4f)     0.00015       1.63779
    86    C    2  f(C2)  Ryd( 5f)     0.00003       3.30316
    87    C    2  f(S2)  Ryd( 4f)     0.00018       1.58622
    88    C    2  f(S2)  Ryd( 5f)     0.00003       3.36665
    89    C    2  f(C3)  Ryd( 4f)     0.00045       3.01041
    90    C    2  f(C3)  Ryd( 5f)     0.00016       3.94350
    91    C    2  f(S3)  Ryd( 4f)     0.00107       2.07272
    92    C    2  f(S3)  Ryd( 5f)     0.00021       4.15872
 
    93    C    3  S      Cor( 1S)     1.99875     -10.44538
    94    C    3  S      Val( 2S)     0.82935      -0.11349
    95    C    3  S      Ryd( 3S)     0.00116       2.15964
    96    C    3  S      Ryd( 5S)     0.00006       2.78798
    97    C    3  S      Ryd( 4S)     0.00005       2.67986
    98    C    3  px     Val( 2p)     0.93492      -0.11518
    99    C    3  px     Ryd( 3p)     0.00405       1.28511
   100    C    3  px     Ryd( 4p)     0.00004       2.38512
   101    C    3  py     Val( 2p)     1.14078      -0.16397
   102    C    3  py     Ryd( 3p)     0.00460       1.81637
   103    C    3  py     Ryd( 4p)     0.00006       1.81655
   104    C    3  pz     Val( 2p)     1.03286      -0.18458
   105    C    3  pz     Ryd( 3p)     0.00080       0.76750
   106    C    3  pz     Ryd( 4p)     0.00009       1.61577
   107    C    3  dxy    Ryd( 3d)     0.00070       2.47606
   108    C    3  dxy    Ryd( 4d)     0.00064       4.27329
   109    C    3  dxy    Ryd( 5d)     0.00003       5.25390
   110    C    3  dxz    Ryd( 3d)     0.00016       0.89880
   111    C    3  dxz    Ryd( 5d)     0.00022       3.47692
   112    C    3  dxz    Ryd( 4d)     0.00007       2.75076
   113    C    3  dyz    Ryd( 3d)     0.00135       0.82986
   114    C    3  dyz    Ryd( 5d)     0.00024       3.15206
   115    C    3  dyz    Ryd( 4d)     0.00002       2.83864
   116    C    3  dx2y2  Ryd( 3d)     0.00173       1.92800
   117    C    3  dx2y2  Ryd( 4d)     0.00051       4.55117
   118    C    3  dx2y2  Ryd( 5d)     0.00004       5.04148
   119    C    3  dz2    Ryd( 3d)     0.00102       1.01491
   120    C    3  dz2    Ryd( 5d)     0.00017       4.79807
   121    C    3  dz2    Ryd( 4d)     0.00003       3.93830
   122    C    3  f(0)   Ryd( 4f)     0.00072       1.67523
   123    C    3  f(0)   Ryd( 5f)     0.00010       3.30457
   124    C    3  f(C1)  Ryd( 4f)     0.00076       2.26359
   125    C    3  f(C1)  Ryd( 5f)     0.00038       3.49976
   126    C    3  f(S1)  Ryd( 4f)     0.00159       2.25436
   127    C    3  f(S1)  Ryd( 5f)     0.00017       3.46341
   128    C    3  f(C2)  Ryd( 4f)     0.00047       1.77381
   129    C    3  f(C2)  Ryd( 5f)     0.00003       3.15191
   130    C    3  f(S2)  Ryd( 4f)     0.00040       1.86205
   131    C    3  f(S2)  Ryd( 5f)     0.00003       3.03725
   132    C    3  f(C3)  Ryd( 4f)     0.00086       3.84782
   133    C    3  f(C3)  Ryd( 5f)     0.00009       4.72070
   134    C    3  f(S3)  Ryd( 4f)     0.00189       2.78841
   135    C    3  f(S3)  Ryd( 5f)     0.00038       4.08378
 
   136    C    4  S      Cor( 1S)     1.99912     -10.42550
   137    C    4  S      Val( 2S)     0.95220      -0.21934
   138    C    4  S      Ryd( 3S)     0.00164       1.71438
   139    C    4  S      Ryd( 5S)     0.00012       3.02673
   140    C    4  S      Ryd( 4S)     0.00003       2.21392
   141    C    4  px     Val( 2p)     1.08624      -0.10890
   142    C    4  px     Ryd( 4p)     0.00525       1.62913
   143    C    4  px     Ryd( 3p)     0.00022       1.32313
   144    C    4  px     Ryd( 5p)     0.00010       2.87375
   145    C    4  py     Val( 2p)     1.14046      -0.10967
   146    C    4  py     Ryd( 4p)     0.00429       1.72882
   147    C    4  py     Ryd( 3p)     0.00018       1.15153
   148    C    4  py     Ryd( 5p)     0.00005       2.59277
   149    C    4  pz     Val( 2p)     0.92427      -0.15969
   150    C    4  pz     Ryd( 3p)     0.00109       0.86725
   151    C    4  pz     Ryd( 4p)     0.00050       1.02363
   152    C    4  pz     Ryd( 5p)     0.00006       1.79257
   153    C    4  dxy    Ryd( 3d)     0.00148       2.76759
   154    C    4  dxy    Ryd( 5d)     0.00022       4.01773
   155    C    4  dxy    Ryd( 4d)     0.00007       3.58584
   156    C    4  dxz    Ryd( 3d)     0.00049       1.42318
   157    C    4  dxz    Ryd( 5d)     0.00011       3.12096
   158    C    4  dxz    Ryd( 4d)     0.00001       2.11840
   159    C    4  dyz    Ryd( 3d)     0.00017       1.26972
   160    C    4  dyz    Ryd( 5d)     0.00007       3.19445
   161    C    4  dyz    Ryd( 4d)     0.00005       1.91975
   162    C    4  dx2y2  Ryd( 3d)     0.00176       3.27942
   163    C    4  dx2y2  Ryd( 5d)     0.00020       3.95097
   164    C    4  dx2y2  Ryd( 4d)     0.00005       3.31949
   165    C    4  dz2    Ryd( 3d)     0.00110       1.64690
   166    C    4  dz2    Ryd( 5d)     0.00021       4.33880
   167    C    4  dz2    Ryd( 4d)     0.00005       4.19608
   168    C    4  f(0)   Ryd( 4f)     0.00018       1.51556
   169    C    4  f(0)   Ryd( 5f)     0.00014       3.37498
   170    C    4  f(C1)  Ryd( 4f)     0.00060       2.10190
   171    C    4  f(C1)  Ryd( 5f)     0.00024       3.60052
   172    C    4  f(S1)  Ryd( 4f)     0.00055       1.94504
   173    C    4  f(S1)  Ryd( 5f)     0.00015       3.46017
   174    C    4  f(C2)  Ryd( 4f)     0.00018       1.62442
   175    C    4  f(C2)  Ryd( 5f)     0.00002       3.39811
   176    C    4  f(S2)  Ryd( 4f)     0.00021       1.58726
   177    C    4  f(S2)  Ryd( 5f)     0.00004       3.37522
   178    C    4  f(C3)  Ryd( 4f)     0.00043       3.65784
   179    C    4  f(C3)  Ryd( 5f)     0.00017       4.08543
   180    C    4  f(S3)  Ryd( 4f)     0.00112       2.04021
   181    C    4  f(S3)  Ryd( 5f)     0.00023       4.35453
 
   182    C    5  S      Cor( 1S)     1.99910     -10.42035
   183    C    5  S      Val( 2S)     0.94431      -0.21656
   184    C    5  S      Ryd( 3S)     0.00126       1.93883
   185    C    5  S      Ryd( 5S)     0.00011       2.70506
   186    C    5  S      Ryd( 4S)     0.00002       1.98298
   187    C    5  px     Val( 2p)     1.08759      -0.10980
   188    C    5  px     Ryd( 4p)     0.00371       1.92227
   189    C    5  px     Ryd( 3p)     0.00009       1.24633
   190    C    5  px     Ryd( 5p)     0.00010       2.79123
   191    C    5  py     Val( 2p)     1.14427      -0.10908
   192    C    5  py     Ryd( 4p)     0.00431       1.84030
   193    C    5  py     Ryd( 3p)     0.00009       1.08807
   194    C    5  py     Ryd( 5p)     0.00005       2.41911
   195    C    5  pz     Val( 2p)     0.95198      -0.15902
   196    C    5  pz     Ryd( 4p)     0.00065       0.99258
   197    C    5  pz     Ryd( 3p)     0.00016       0.66688
   198    C    5  pz     Ryd( 5p)     0.00010       1.68285
   199    C    5  dxy    Ryd( 3d)     0.00174       2.76300
   200    C    5  dxy    Ryd( 5d)     0.00016       3.85662
   201    C    5  dxy    Ryd( 4d)     0.00008       3.17526
   202    C    5  dxz    Ryd( 3d)     0.00075       1.48668
   203    C    5  dxz    Ryd( 5d)     0.00003       3.04448
   204    C    5  dxz    Ryd( 4d)     0.00002       1.89049
   205    C    5  dyz    Ryd( 3d)     0.00038       1.27770
   206    C    5  dyz    Ryd( 5d)     0.00005       3.11301
   207    C    5  dyz    Ryd( 4d)     0.00003       1.70030
   208    C    5  dx2y2  Ryd( 4d)     0.00198       3.42423
   209    C    5  dx2y2  Ryd( 5d)     0.00026       4.00313
   210    C    5  dx2y2  Ryd( 3d)     0.00006       2.69182
   211    C    5  dz2    Ryd( 3d)     0.00103       1.88007
   212    C    5  dz2    Ryd( 5d)     0.00010       4.10977
   213    C    5  dz2    Ryd( 4d)     0.00008       3.71600
   214    C    5  f(0)   Ryd( 4f)     0.00010       1.51451
   215    C    5  f(0)   Ryd( 5f)     0.00011       3.37358
   216    C    5  f(C1)  Ryd( 4f)     0.00048       2.06524
   217    C    5  f(C1)  Ryd( 5f)     0.00023       3.62186
   218    C    5  f(S1)  Ryd( 4f)     0.00051       1.98302
   219    C    5  f(S1)  Ryd( 5f)     0.00015       3.46770
   220    C    5  f(C2)  Ryd( 4f)     0.00015       1.52843
   221    C    5  f(C2)  Ryd( 5f)     0.00002       3.40683
   222    C    5  f(S2)  Ryd( 4f)     0.00017       1.55077
   223    C    5  f(S2)  Ryd( 5f)     0.00005       3.35991
   224    C    5  f(C3)  Ryd( 4f)     0.00046       3.73530
   225    C    5  f(C3)  Ryd( 5f)     0.00013       4.09791
   226    C    5  f(S3)  Ryd( 4f)     0.00110       1.96998
   227    C    5  f(S3)  Ryd( 5f)     0.00027       4.36405
 
   228    C    6  S      Cor( 1S)     1.99884     -10.41221
   229    C    6  S      Val( 2S)     0.89324      -0.16090
   230    C    6  S      Ryd( 3S)     0.00104       2.08522
   231    C    6  S      Ryd( 4S)     0.00007       2.48104
   232    C    6  S      Ryd( 5S)     0.00004       4.01515
   233    C    6  px     Val( 2p)     1.10237      -0.14243
   234    C    6  px     Ryd( 4p)     0.00620       2.33495
   235    C    6  px     Ryd( 3p)     0.00007       0.97736
   236    C    6  px     Ryd( 5p)     0.00003       2.54451
   237    C    6  py     Val( 2p)     1.14067      -0.14268
   238    C    6  py     Ryd( 4p)     0.00505       2.09980
   239    C    6  py     Ryd( 3p)     0.00012       0.89066
   240    C    6  py     Ryd( 5p)     0.00004       2.26262
   241    C    6  pz     Val( 2p)     1.01038      -0.16988
   242    C    6  pz     Ryd( 4p)     0.00080       0.93638
   243    C    6  pz     Ryd( 3p)     0.00018       0.69207
   244    C    6  pz     Ryd( 5p)     0.00009       1.79497
   245    C    6  dxy    Ryd( 3d)     0.00065       3.05568
   246    C    6  dxy    Ryd( 4d)     0.00036       3.65747
   247    C    6  dxy    Ryd( 5d)     0.00005       5.32134
   248    C    6  dxz    Ryd( 3d)     0.00022       1.64902
   249    C    6  dxz    Ryd( 5d)     0.00009       2.94505
   250    C    6  dxz    Ryd( 4d)     0.00007       2.16310
   251    C    6  dyz    Ryd( 3d)     0.00054       1.54561
   252    C    6  dyz    Ryd( 5d)     0.00003       2.79202
   253    C    6  dyz    Ryd( 4d)     0.00004       2.41858
   254    C    6  dx2y2  Ryd( 3d)     0.00240       3.48880
   255    C    6  dx2y2  Ryd( 4d)     0.00012       4.00227
   256    C    6  dx2y2  Ryd( 5d)     0.00004       4.46653
   257    C    6  dz2    Ryd( 3d)     0.00087       2.07304
   258    C    6  dz2    Ryd( 4d)     0.00019       3.90251
   259    C    6  dz2    Ryd( 5d)     0.00007       4.19347
   260    C    6  f(0)   Ryd( 4f)     0.00046       1.56237
   261    C    6  f(0)   Ryd( 5f)     0.00018       3.39260
   262    C    6  f(C1)  Ryd( 4f)     0.00041       1.97986
   263    C    6  f(C1)  Ryd( 5f)     0.00050       3.56589
   264    C    6  f(S1)  Ryd( 4f)     0.00080       1.82962
   265    C    6  f(S1)  Ryd( 5f)     0.00023       3.62070
   266    C    6  f(C2)  Ryd( 4f)     0.00058       1.58258
   267    C    6  f(C2)  Ryd( 5f)     0.00003       3.35171
   268    C    6  f(S2)  Ryd( 4f)     0.00077       1.42996
   269    C    6  f(S2)  Ryd( 5f)     0.00006       3.41758
   270    C    6  f(C3)  Ryd( 4f)     0.00131       2.44791
   271    C    6  f(C3)  Ryd( 5f)     0.00009       4.40577
   272    C    6  f(S3)  Ryd( 4f)     0.00181       2.66802
   273    C    6  f(S3)  Ryd( 5f)     0.00025       4.05712
 
   274    C    7  S      Cor( 1S)     1.99909     -10.56165
   275    C    7  S      Val( 2S)     0.78095      -0.12788
   276    C    7  S      Ryd( 3S)     0.00365       1.99527
   277    C    7  S      Ryd( 4S)     0.00011       2.24738
   278    C    7  S      Ryd( 5S)     0.00007       2.48909
   279    C    7  px     Val( 2p)     0.92009      -0.07103
   280    C    7  px     Ryd( 5p)     0.00610       1.61084
   281    C    7  px     Ryd( 3p)     0.00022       1.14139
   282    C    7  px     Ryd( 4p)     0.00002       1.27086
   283    C    7  py     Val( 2p)     0.72699      -0.05428
   284    C    7  py     Ryd( 4p)     0.01250       1.58026
   285    C    7  py     Ryd( 3p)     0.00008       1.21920
   286    C    7  py     Ryd( 5p)     0.00007       1.85698
   287    C    7  pz     Val( 2p)     0.76105      -0.15184
   288    C    7  pz     Ryd( 5p)     0.00065       1.12051
   289    C    7  pz     Ryd( 3p)     0.00009       0.69052
   290    C    7  pz     Ryd( 4p)     0.00004       0.98772
   291    C    7  dxy    Ryd( 4d)     0.00052       3.27029
   292    C    7  dxy    Ryd( 3d)     0.00032       3.04644
   293    C    7  dxy    Ryd( 5d)     0.00008       3.40485
   294    C    7  dxz    Ryd( 5d)     0.00098       2.36222
   295    C    7  dxz    Ryd( 3d)     0.00004       2.09605
   296    C    7  dxz    Ryd( 4d)     0.00007       2.29088
   297    C    7  dyz    Ryd( 4d)     0.00193       2.35964
   298    C    7  dyz    Ryd( 3d)     0.00002       2.13254
   299    C    7  dyz    Ryd( 5d)     0.00004       2.42772
   300    C    7  dx2y2  Ryd( 4d)     0.00222       3.21673
   301    C    7  dx2y2  Ryd( 3d)     0.00018       2.47652
   302    C    7  dx2y2  Ryd( 5d)     0.00007       3.58918
   303    C    7  dz2    Ryd( 4d)     0.00041       3.21412
   304    C    7  dz2    Ryd( 3d)     0.00057       2.97815
   305    C    7  dz2    Ryd( 5d)     0.00010       3.45921
   306    C    7  f(0)   Ryd( 5f)     0.00011       3.49365
   307    C    7  f(0)   Ryd( 4f)     0.00003       2.43871
   308    C    7  f(C1)  Ryd( 5f)     0.00017       3.71508
   309    C    7  f(C1)  Ryd( 4f)     0.00002       3.32541
   310    C    7  f(S1)  Ryd( 5f)     0.00006       3.62105
   311    C    7  f(S1)  Ryd( 4f)     0.00004       3.25554
   312    C    7  f(C2)  Ryd( 5f)     0.00000       3.39650
   313    C    7  f(C2)  Ryd( 4f)     0.00006       2.58799
   314    C    7  f(S2)  Ryd( 5f)     0.00002       3.61544
   315    C    7  f(S2)  Ryd( 4f)     0.00001       2.87226
   316    C    7  f(C3)  Ryd( 4f)     0.00007       4.52121
   317    C    7  f(C3)  Ryd( 5f)     0.00003       8.41063
   318    C    7  f(S3)  Ryd( 5f)     0.00007       4.57181
   319    C    7  f(S3)  Ryd( 4f)     0.00005       4.03065
 
   320    O    8  S      Cor( 1S)     1.99979     -19.35160
   321    O    8  S      Val( 2S)     1.70708      -1.02600
   322    O    8  S      Ryd( 4S)     0.00040       2.99567
   323    O    8  S      Ryd( 3S)     0.00021       1.56431
   324    O    8  S      Ryd( 5S)     0.00001       8.77127
   325    O    8  px     Val( 2p)     1.74214      -0.36130
   326    O    8  px     Ryd( 4p)     0.00103       1.38541
   327    O    8  px     Ryd( 3p)     0.00012       0.85192
   328    O    8  px     Ryd( 5p)     0.00004       4.68481
   329    O    8  py     Val( 2p)     1.67265      -0.36253
   330    O    8  py     Ryd( 4p)     0.00129       1.36969
   331    O    8  py     Ryd( 3p)     0.00009       0.73374
   332    O    8  py     Ryd( 5p)     0.00004       5.07691
   333    O    8  pz     Val( 2p)     1.43121      -0.31056
   334    O    8  pz     Ryd( 4p)     0.00056       1.03493
   335    O    8  pz     Ryd( 3p)     0.00003       0.57428
   336    O    8  pz     Ryd( 5p)     0.00001       4.05953
   337    O    8  dxy    Ryd( 3d)     0.00793       2.05854
   338    O    8  dxy    Ryd( 4d)     0.00010       3.10530
   339    O    8  dxy    Ryd( 5d)     0.00002       6.79539
   340    O    8  dxz    Ryd( 3d)     0.00250       1.45388
   341    O    8  dxz    Ryd( 4d)     0.00000       1.48870
   342    O    8  dxz    Ryd( 5d)     0.00001       6.58551
   343    O    8  dyz    Ryd( 4d)     0.00421       1.51728
   344    O    8  dyz    Ryd( 3d)     0.00004       1.48746
   345    O    8  dyz    Ryd( 5d)     0.00002       6.57250
   346    O    8  dx2y2  Ryd( 3d)     0.00561       1.79984
   347    O    8  dx2y2  Ryd( 4d)     0.00008       1.90541
   348    O    8  dx2y2  Ryd( 5d)     0.00006       6.69587
   349    O    8  dz2    Ryd( 3d)     0.00276       1.62692
   350    O    8  dz2    Ryd( 4d)     0.00010       2.35698
   351    O    8  dz2    Ryd( 5d)     0.00000       6.66648
   352    O    8  f(0)   Ryd( 4f)     0.00011       3.16730
   353    O    8  f(0)   Ryd( 5f)     0.00000       5.41953
   354    O    8  f(C1)  Ryd( 4f)     0.00008       3.38461
   355    O    8  f(C1)  Ryd( 5f)     0.00001       5.54713
   356    O    8  f(S1)  Ryd( 4f)     0.00009       3.60482
   357    O    8  f(S1)  Ryd( 5f)     0.00001       5.69921
   358    O    8  f(C2)  Ryd( 4f)     0.00004       3.10694
   359    O    8  f(C2)  Ryd( 5f)     0.00001       5.64341
   360    O    8  f(S2)  Ryd( 4f)     0.00027       3.23517
   361    O    8  f(S2)  Ryd( 5f)     0.00001       5.52083
   362    O    8  f(C3)  Ryd( 4f)     0.00035       4.04850
   363    O    8  f(C3)  Ryd( 5f)     0.00001       6.00446
   364    O    8  f(S3)  Ryd( 4f)     0.00042       3.70437
   365    O    8  f(S3)  Ryd( 5f)     0.00003       5.86895
 
   366    O    9  S      Cor( 1S)     1.99978     -19.47604
   367    O    9  S      Val( 2S)     1.67893      -1.05238
   368    O    9  S      Ryd( 3S)     0.00038       1.71403
   369    O    9  S      Ryd( 4S)     0.00009       2.44326
   370    O    9  S      Ryd( 5S)     0.00001       9.30334
   371    O    9  px     Val( 2p)     1.48179      -0.37858
   372    O    9  px     Ryd( 4p)     0.00058       1.22712
   373    O    9  px     Ryd( 3p)     0.00010       1.08643
   374    O    9  px     Ryd( 5p)     0.00003       4.98280
   375    O    9  py     Val( 2p)     1.67900      -0.41677
   376    O    9  py     Ryd( 4p)     0.00089       1.09014
   377    O    9  py     Ryd( 3p)     0.00009       0.78683
   378    O    9  py     Ryd( 5p)     0.00006       4.78262
   379    O    9  pz     Val( 2p)     1.84281      -0.42920
   380    O    9  pz     Ryd( 4p)     0.00106       0.87652
   381    O    9  pz     Ryd( 3p)     0.00001       0.61398
   382    O    9  pz     Ryd( 5p)     0.00001       4.01447
   383    O    9  dxy    Ryd( 3d)     0.00530       1.96797
   384    O    9  dxy    Ryd( 4d)     0.00013       2.39134
   385    O    9  dxy    Ryd( 5d)     0.00003       6.72062
   386    O    9  dxz    Ryd( 3d)     0.00034       1.18994
   387    O    9  dxz    Ryd( 4d)     0.00006       1.95383
   388    O    9  dxz    Ryd( 5d)     0.00001       6.37672
   389    O    9  dyz    Ryd( 3d)     0.00438       1.32930
   390    O    9  dyz    Ryd( 4d)     0.00002       1.70820
   391    O    9  dyz    Ryd( 5d)     0.00003       6.40178
   392    O    9  dx2y2  Ryd( 3d)     0.00421       1.79863
   393    O    9  dx2y2  Ryd( 4d)     0.00007       2.17437
   394    O    9  dx2y2  Ryd( 5d)     0.00006       6.80021
   395    O    9  dz2    Ryd( 3d)     0.00295       1.53133
   396    O    9  dz2    Ryd( 4d)     0.00012       2.37801
   397    O    9  dz2    Ryd( 5d)     0.00001       6.63122
   398    O    9  f(0)   Ryd( 4f)     0.00050       2.78901
   399    O    9  f(0)   Ryd( 5f)     0.00001       5.89432
   400    O    9  f(C1)  Ryd( 4f)     0.00021       3.39467
   401    O    9  f(C1)  Ryd( 5f)     0.00001       6.19206
   402    O    9  f(S1)  Ryd( 4f)     0.00014       3.39141
   403    O    9  f(S1)  Ryd( 5f)     0.00001       6.11194
   404    O    9  f(C2)  Ryd( 4f)     0.00004       2.85246
   405    O    9  f(C2)  Ryd( 5f)     0.00001       6.04921
   406    O    9  f(S2)  Ryd( 4f)     0.00006       2.85703
   407    O    9  f(S2)  Ryd( 5f)     0.00001       5.93573
   408    O    9  f(C3)  Ryd( 4f)     0.00011       4.48763
   409    O    9  f(C3)  Ryd( 5f)     0.00005       6.52757
   410    O    9  f(S3)  Ryd( 4f)     0.00008       3.74596
   411    O    9  f(S3)  Ryd( 5f)     0.00002       6.41159
 
   412    N   10  S      Cor( 1S)     1.99902     -14.83291
   413    N   10  S      Val( 2S)     1.11859      -0.59895
   414    N   10  S      Ryd( 3S)     0.00204       1.49416
   415    N   10  S      Ryd( 4S)     0.00036       3.04253
   416    N   10  S      Ryd( 5S)     0.00009       6.00200
   417    N   10  px     Val( 2p)     1.18312      -0.34546
   418    N   10  px     Ryd( 4p)     0.00700       1.47428
   419    N   10  px     Ryd( 3p)     0.00046       0.89549
   420    N   10  px     Ryd( 5p)     0.00010       4.50296
   421    N   10  py     Val( 2p)     1.03942      -0.31536
   422    N   10  py     Ryd( 4p)     0.01221       1.41429
   423    N   10  py     Ryd( 3p)     0.00025       1.37599
   424    N   10  py     Ryd( 5p)     0.00005       4.04626
   425    N   10  pz     Val( 2p)     1.16055      -0.35270
   426    N   10  pz     Ryd( 4p)     0.00228       0.88280
   427    N   10  pz     Ryd( 3p)     0.00042       0.86625
   428    N   10  pz     Ryd( 5p)     0.00007       2.93022
   429    N   10  dxy    Ryd( 3d)     0.00222       2.33903
   430    N   10  dxy    Ryd( 5d)     0.00052       5.52283
   431    N   10  dxy    Ryd( 4d)     0.00002       2.39905
   432    N   10  dxz    Ryd( 4d)     0.00060       1.42174
   433    N   10  dxz    Ryd( 5d)     0.00009       4.78501
   434    N   10  dxz    Ryd( 3d)     0.00006       1.30791
   435    N   10  dyz    Ryd( 4d)     0.00708       1.61451
   436    N   10  dyz    Ryd( 5d)     0.00004       4.87712
   437    N   10  dyz    Ryd( 3d)     0.00001       1.44836
   438    N   10  dx2y2  Ryd( 4d)     0.00678       2.60050
   439    N   10  dx2y2  Ryd( 5d)     0.00009       5.42966
   440    N   10  dx2y2  Ryd( 3d)     0.00002       2.07128
   441    N   10  dz2    Ryd( 3d)     0.00098       2.04520
   442    N   10  dz2    Ryd( 5d)     0.00023       5.44890
   443    N   10  dz2    Ryd( 4d)     0.00008       3.44619
   444    N   10  f(0)   Ryd( 4f)     0.00048       2.14997
   445    N   10  f(0)   Ryd( 5f)     0.00009       4.51788
   446    N   10  f(C1)  Ryd( 4f)     0.00045       2.39222
   447    N   10  f(C1)  Ryd( 5f)     0.00013       4.59560
   448    N   10  f(S1)  Ryd( 4f)     0.00042       2.33818
   449    N   10  f(S1)  Ryd( 5f)     0.00010       4.55101
   450    N   10  f(C2)  Ryd( 4f)     0.00010       2.01114
   451    N   10  f(C2)  Ryd( 5f)     0.00010       4.44829
   452    N   10  f(S2)  Ryd( 4f)     0.00007       2.13554
   453    N   10  f(S2)  Ryd( 5f)     0.00006       4.65215
   454    N   10  f(C3)  Ryd( 4f)     0.00050       3.41239
   455    N   10  f(C3)  Ryd( 5f)     0.00007       5.41619
   456    N   10  f(S3)  Ryd( 4f)     0.00098       2.69547
   457    N   10  f(S3)  Ryd( 5f)     0.00027       5.25572
 
   458    O   11  S      Cor( 1S)     1.99988     -19.49572
   459    O   11  S      Val( 2S)     1.80515      -1.02475
   460    O   11  S      Ryd( 4S)     0.00056       3.14327
   461    O   11  S      Ryd( 3S)     0.00022       2.53474
   462    O   11  S      Ryd( 5S)     0.00001       8.73621
   463    O   11  px     Val( 2p)     1.71217      -0.35155
   464    O   11  px     Ryd( 4p)     0.00077       1.22473
   465    O   11  px     Ryd( 3p)     0.00010       0.78043
   466    O   11  px     Ryd( 5p)     0.00003       4.97814
   467    O   11  py     Val( 2p)     1.38039      -0.29692
   468    O   11  py     Ryd( 4p)     0.00082       1.48675
   469    O   11  py     Ryd( 3p)     0.00017       0.96216
   470    O   11  py     Ryd( 5p)     0.00006       5.28922
   471    O   11  pz     Val( 2p)     1.47914      -0.32619
   472    O   11  pz     Ryd( 4p)     0.00112       0.85964
   473    O   11  pz     Ryd( 3p)     0.00006       0.57528
   474    O   11  pz     Ryd( 5p)     0.00001       4.22727
   475    O   11  dxy    Ryd( 3d)     0.00260       2.21456
   476    O   11  dxy    Ryd( 4d)     0.00005       2.25866
   477    O   11  dxy    Ryd( 5d)     0.00002       6.80941
   478    O   11  dxz    Ryd( 4d)     0.00123       1.61641
   479    O   11  dxz    Ryd( 3d)     0.00001       1.57808
   480    O   11  dxz    Ryd( 5d)     0.00001       6.55478
   481    O   11  dyz    Ryd( 4d)     0.00154       1.80627
   482    O   11  dyz    Ryd( 3d)     0.00002       1.59184
   483    O   11  dyz    Ryd( 5d)     0.00001       6.63741
   484    O   11  dx2y2  Ryd( 4d)     0.00246       2.09614
   485    O   11  dx2y2  Ryd( 3d)     0.00008       1.94855
   486    O   11  dx2y2  Ryd( 5d)     0.00001       6.76798
   487    O   11  dz2    Ryd( 3d)     0.00104       1.81394
   488    O   11  dz2    Ryd( 4d)     0.00003       1.89487
   489    O   11  dz2    Ryd( 5d)     0.00001       6.70262
   490    O   11  f(0)   Ryd( 5f)     0.00001       4.82045
   491    O   11  f(0)   Ryd( 4f)     0.00002       3.91787
   492    O   11  f(C1)  Ryd( 5f)     0.00001       4.92166
   493    O   11  f(C1)  Ryd( 4f)     0.00001       4.20477
   494    O   11  f(S1)  Ryd( 5f)     0.00003       5.09459
   495    O   11  f(S1)  Ryd( 4f)     0.00001       4.46389
   496    O   11  f(C2)  Ryd( 5f)     0.00001       4.70345
   497    O   11  f(C2)  Ryd( 4f)     0.00000       4.25511
   498    O   11  f(S2)  Ryd( 5f)     0.00005       4.83117
   499    O   11  f(S2)  Ryd( 4f)     0.00001       4.07598
   500    O   11  f(C3)  Ryd( 5f)     0.00010       5.22121
   501    O   11  f(C3)  Ryd( 4f)     0.00002       4.85990
   502    O   11  f(S3)  Ryd( 5f)     0.00008       5.02500
   503    O   11  f(S3)  Ryd( 4f)     0.00002       4.69620
 
   504    O   12  S      Cor( 1S)     1.99988     -19.49547
   505    O   12  S      Val( 2S)     1.80339      -1.02496
   506    O   12  S      Ryd( 4S)     0.00056       3.08339
   507    O   12  S      Ryd( 3S)     0.00022       2.68538
   508    O   12  S      Ryd( 5S)     0.00001       8.64339
   509    O   12  px     Val( 2p)     1.67029      -0.34545
   510    O   12  px     Ryd( 4p)     0.00077       1.24847
   511    O   12  px     Ryd( 3p)     0.00010       0.80559
   512    O   12  px     Ryd( 5p)     0.00003       4.99344
   513    O   12  py     Val( 2p)     1.42675      -0.30495
   514    O   12  py     Ryd( 4p)     0.00087       1.45444
   515    O   12  py     Ryd( 3p)     0.00017       0.98146
   516    O   12  py     Ryd( 5p)     0.00006       5.20775
   517    O   12  pz     Val( 2p)     1.47228      -0.32595
   518    O   12  pz     Ryd( 4p)     0.00113       0.85795
   519    O   12  pz     Ryd( 3p)     0.00006       0.59512
   520    O   12  pz     Ryd( 5p)     0.00001       4.19834
   521    O   12  dxy    Ryd( 3d)     0.00276       2.20758
   522    O   12  dxy    Ryd( 4d)     0.00005       2.27609
   523    O   12  dxy    Ryd( 5d)     0.00002       6.80377
   524    O   12  dxz    Ryd( 4d)     0.00141       1.63958
   525    O   12  dxz    Ryd( 3d)     0.00001       1.57746
   526    O   12  dxz    Ryd( 5d)     0.00001       6.55999
   527    O   12  dyz    Ryd( 4d)     0.00140       1.79135
   528    O   12  dyz    Ryd( 3d)     0.00002       1.58362
   529    O   12  dyz    Ryd( 5d)     0.00001       6.62319
   530    O   12  dx2y2  Ryd( 4d)     0.00236       2.10316
   531    O   12  dx2y2  Ryd( 3d)     0.00008       1.95280
   532    O   12  dx2y2  Ryd( 5d)     0.00001       6.76699
   533    O   12  dz2    Ryd( 3d)     0.00105       1.81551
   534    O   12  dz2    Ryd( 4d)     0.00003       1.90696
   535    O   12  dz2    Ryd( 5d)     0.00001       6.69809
   536    O   12  f(0)   Ryd( 5f)     0.00001       4.83343
   537    O   12  f(0)   Ryd( 4f)     0.00002       3.90486
   538    O   12  f(C1)  Ryd( 5f)     0.00001       4.95966
   539    O   12  f(C1)  Ryd( 4f)     0.00001       4.23527
   540    O   12  f(S1)  Ryd( 5f)     0.00003       5.08421
   541    O   12  f(S1)  Ryd( 4f)     0.00001       4.39240
   542    O   12  f(C2)  Ryd( 5f)     0.00001       4.70164
   543    O   12  f(C2)  Ryd( 4f)     0.00000       4.24852
   544    O   12  f(S2)  Ryd( 5f)     0.00005       4.85968
   545    O   12  f(S2)  Ryd( 4f)     0.00001       4.05863
   546    O   12  f(C3)  Ryd( 5f)     0.00011       5.23037
   547    O   12  f(C3)  Ryd( 4f)     0.00002       4.81847
   548    O   12  f(S3)  Ryd( 5f)     0.00007       5.05395
   549    O   12  f(S3)  Ryd( 4f)     0.00002       4.70339
 
   550    H   13  S      Val( 1S)     0.74950       0.02456
   551    H   13  S      Ryd( 4S)     0.00047       1.97531
   552    H   13  S      Ryd( 2S)     0.00015       0.59346
   553    H   13  S      Ryd( 3S)     0.00005       1.84270
   554    H   13  px     Ryd( 2p)     0.00049       0.96152
   555    H   13  px     Ryd( 4p)     0.00009       4.15049
   556    H   13  px     Ryd( 3p)     0.00006       2.53264
   557    H   13  py     Ryd( 2p)     0.00105       0.85339
   558    H   13  py     Ryd( 4p)     0.00018       4.16587
   559    H   13  py     Ryd( 3p)     0.00006       4.05418
   560    H   13  pz     Ryd( 2p)     0.00029       0.62211
   561    H   13  pz     Ryd( 4p)     0.00002       3.86715
   562    H   13  pz     Ryd( 3p)     0.00008       1.68541
   563    H   13  dxy    Ryd( 3d)     0.00007       2.22732
   564    H   13  dxy    Ryd( 4d)     0.00003       4.39655
   565    H   13  dxz    Ryd( 3d)     0.00001       1.63099
   566    H   13  dxz    Ryd( 4d)     0.00000       3.57852
   567    H   13  dyz    Ryd( 3d)     0.00004       1.74266
   568    H   13  dyz    Ryd( 4d)     0.00001       3.86364
   569    H   13  dx2y2  Ryd( 3d)     0.00005       2.15112
   570    H   13  dx2y2  Ryd( 4d)     0.00003       4.47657
   571    H   13  dz2    Ryd( 3d)     0.00003       2.07899
   572    H   13  dz2    Ryd( 4d)     0.00003       3.80247
 
   573    H   14  S      Val( 1S)     0.74381       0.02372
   574    H   14  S      Ryd( 3S)     0.00045       1.79381
   575    H   14  S      Ryd( 2S)     0.00021       0.85851
   576    H   14  S      Ryd( 4S)     0.00005       2.12251
   577    H   14  px     Ryd( 2p)     0.00078       1.04999
   578    H   14  px     Ryd( 4p)     0.00010       4.18640
   579    H   14  px     Ryd( 3p)     0.00005       3.25679
   580    H   14  py     Ryd( 2p)     0.00066       0.91893
   581    H   14  py     Ryd( 4p)     0.00017       4.20435
   582    H   14  py     Ryd( 3p)     0.00004       4.14694
   583    H   14  pz     Ryd( 2p)     0.00062       0.58078
   584    H   14  pz     Ryd( 4p)     0.00001       3.95341
   585    H   14  pz     Ryd( 3p)     0.00003       2.11728
   586    H   14  dxy    Ryd( 3d)     0.00010       2.14397
   587    H   14  dxy    Ryd( 4d)     0.00004       4.54117
   588    H   14  dxz    Ryd( 3d)     0.00003       1.41206
   589    H   14  dxz    Ryd( 4d)     0.00001       3.91826
   590    H   14  dyz    Ryd( 3d)     0.00002       1.52273
   591    H   14  dyz    Ryd( 4d)     0.00001       4.08626
   592    H   14  dx2y2  Ryd( 3d)     0.00004       2.17916
   593    H   14  dx2y2  Ryd( 4d)     0.00002       4.60070
   594    H   14  dz2    Ryd( 3d)     0.00004       2.18405
   595    H   14  dz2    Ryd( 4d)     0.00002       4.18056
 
   596    H   15  S      Val( 1S)     0.74417       0.02321
   597    H   15  S      Ryd( 3S)     0.00047       1.80567
   598    H   15  S      Ryd( 2S)     0.00020       0.84829
   599    H   15  S      Ryd( 4S)     0.00005       2.23215
   600    H   15  px     Ryd( 2p)     0.00079       1.07592
   601    H   15  px     Ryd( 4p)     0.00009       4.23105
   602    H   15  px     Ryd( 3p)     0.00004       3.30389
   603    H   15  py     Ryd( 2p)     0.00060       0.95297
   604    H   15  py     Ryd( 4p)     0.00019       4.34233
   605    H   15  py     Ryd( 3p)     0.00004       4.21073
   606    H   15  pz     Ryd( 2p)     0.00068       0.60155
   607    H   15  pz     Ryd( 4p)     0.00001       3.96372
   608    H   15  pz     Ryd( 3p)     0.00003       2.12985
   609    H   15  dxy    Ryd( 3d)     0.00009       2.21759
   610    H   15  dxy    Ryd( 4d)     0.00004       4.53019
   611    H   15  dxz    Ryd( 3d)     0.00003       1.41474
   612    H   15  dxz    Ryd( 4d)     0.00001       3.93497
   613    H   15  dyz    Ryd( 3d)     0.00002       1.54206
   614    H   15  dyz    Ryd( 4d)     0.00001       4.10287
   615    H   15  dx2y2  Ryd( 3d)     0.00004       2.13175
   616    H   15  dx2y2  Ryd( 4d)     0.00002       4.67586
   617    H   15  dz2    Ryd( 3d)     0.00004       2.22489
   618    H   15  dz2    Ryd( 4d)     0.00002       4.21009
 
   619    H   16  S      Val( 1S)     0.75412       0.01988
   620    H   16  S      Ryd( 4S)     0.00048       1.96223
   621    H   16  S      Ryd( 2S)     0.00015       0.64621
   622    H   16  S      Ryd( 3S)     0.00004       1.85426
   623    H   16  px     Ryd( 2p)     0.00059       0.93716
   624    H   16  px     Ryd( 4p)     0.00010       4.20042
   625    H   16  px     Ryd( 3p)     0.00004       3.40746
   626    H   16  py     Ryd( 2p)     0.00094       0.88470
   627    H   16  py     Ryd( 4p)     0.00019       4.24505
[...]
   yy         0.636365D+02      0.942996D+01      0.104922D+02
   zx        -0.132747D+02     -0.196711D+01     -0.218870D+01
   zy         0.452884D+01      0.671104D+00      0.746704D+00
   zz         0.142208D+03      0.210730D+02      0.234469D+02

 ----------------------------------------------------------------------
 Unable to Open any file for archive entry.
 1\1\GINC-AE04\Freq\RM062X\Aug-CC-pVTZ\C7H5N1O4\DHUANG\05-Sep-2022\0\\#
 N Geom=AllCheck Guess=TCheck SCRF=Check GenChk RM062X/Aug-CC-pVTZ Freq
 \\4-NO2_benzoic-acid\\0,1\C,-1.2384128889,0.1083814046,0.0018356171\C,
 -1.1457679146,-1.271636989,0.0015431922\C,0.1151125313,-1.8411977101,0
 .0022326345\C,1.278862365,-1.0954031783,0.0031828738\C,1.173230985,0.2
 855425698,0.0034359887\C,-0.0829046548,0.8825646361,0.0027847669\C,-0.
 2443531046,2.3650141766,0.0031132618\O,-1.3026978532,2.9295368705,0.00
 20373688\O,0.9294051827,3.0183932034,0.0032973609\N,0.2235079787,-3.31
 70807488,0.0019473127\O,1.3353143785,-3.7935480814,0.0030512315\O,-0.8
 066655835,-3.9507152131,0.000637709\H,-2.1989941971,0.6032992337,0.001
 3496914\H,-2.0195763648,-1.904398192,0.000804331\H,2.2350470993,-1.595
 0359554,0.003695593\H,2.0609665974,0.8999218327,0.0041544551\H,0.72952
 54437,3.9640621407,0.0028966117\\Version=ES64L-G16RevC.01\State=1-A\HF
 =-625.3295978\RMSD=2.503e-09\RMSF=6.429e-05\ZeroPoint=0.1194068\Therma
 l=0.1289904\ETot=-625.2006074\HTot=-625.1996632\GTot=-625.2465722\Dipo
 le=0.4597363,1.3521165,0.0006919\DipoleDeriv=-0.0075242,0.0211224,0.00
 00484,-0.223846,-0.0655199,-0.0001263,0.0000226,-0.0000953,-0.0810023,
 -0.1058958,-0.0676756,-0.0000386,0.2099377,-0.0161454,0.0001555,0.0000
 524,-0.0000609,-0.0655022,0.1954708,0.0384961,0.0000631,0.0354088,-0.2
 451819,-0.0000404,0.0000856,-0.0000632,0.0511198,-0.0842134,0.0477301,
 -0.0000094,-0.2136347,-0.0572961,-0.0001429,-0.0000665,0.000094,-0.068
 7452,-0.0430442,-0.01229,0.0000219,0.2306582,-0.0106611,0.0001818,0.00
 00751,-0.0001085,-0.0843473,0.0590905,0.0244385,0.000069,0.0252578,-0.
 460801,-0.0000483,0.0001091,-0.0001635,-0.0195534,1.658778,0.1028939,0
 .0005561,0.0251507,2.1328685,0.0002307,0.0005338,0.0000996,0.3386414,-
 1.003199,0.2792033,-0.0001799,0.36284,-1.1101764,0.0000676,-0.000571,0
 .000289,-0.3632546,-0.9693775,-0.4980264,-0.0003303,-0.4987077,-1.0020
 8,-0.0003095,0.0000055,-0.0000529,-0.3557834,1.7267945,-0.00624,0.0017
 221,-0.0107522,1.81568,0.0004047,0.0016299,0.0004199,0.2620419,-1.0300
 452,0.1975463,-0.000854,0.3979856,-0.8361206,0.0002919,-0.0007639,0.00
 00564,-0.2431125,-0.9375429,-0.2119032,-0.0008597,-0.4103722,-0.923322
 2,-0.0006474,-0.0008776,-0.0004211,-0.2424923,0.0536627,0.01223,-0.000
 041,0.0235606,0.0974921,0.0000008,-0.0000466,-0.0000048,0.1291768,0.08
 77446,-0.014262,-0.0000302,-0.0221348,0.1105225,-0.000015,-0.0000639,0
 .0000236,0.139575,0.0806759,0.0103293,-0.0000261,0.0179621,0.1150732,0
 .0000039,-0.0000324,-0.0000055,0.1395435,0.0468838,-0.0319938,-0.00006
 33,-0.0267943,0.0812238,-0.0000406,-0.0000507,-0.0000508,0.1305006,0.2
 717413,0.1084011,-0.0000482,0.0774805,0.3744447,0.0000334,-0.0000413,0
 .0000438,0.3331944\Polar=111.2245354,-3.491345,148.1637574,0.0395752,0
 .0146526,57.4194826\Quadrupole=3.2923298,-5.7765758,2.4842461,6.101820
 7,-0.0003932,0.0011526\PG=C01 [X(C7H5N1O4)]\NImag=0\\0.73205976,-0.043
 39886,0.71061011,0.00036876,0.00012414,0.14252129,-0.13496890,-0.02475
 700,-0.00004942,0.73458141,0.05371845,-0.35371351,-0.00004115,0.049151
 13,0.72179137,-0.00003051,-0.00008974,-0.06367641,0.00040619,0.0001821
 6,0.13872836,0.03274574,0.09337899,0.00004061,-0.31469538,0.02905346,-
 0.00015947,0.77891862,0.03083910,-0.02223515,0.00001227,0.10568668,-0.
 14635712,0.00004611,0.01675965,0.56830742,0.00002855,0.00005613,0.0038
 1398,-0.00014054,-0.00000456,-0.06369216,0.00044581,0.00011608,0.14704
 499,-0.01616793,-0.03363140,-0.00001657,-0.05782030,0.02020017,-0.0000
 3770,-0.29364961,-0.12855411,-0.00018471,0.75066395,-0.03192575,-0.066
 47137,-0.00003646,-0.03888547,0.07272011,-0.00000776,-0.05191241,-0.17
 039765,-0.00005794,-0.04250565,0.70490109,-0.00001760,-0.00003940,-0.0
 0325726,-0.00005251,0.00003105,0.00731615,-0.00016191,-0.00010817,-0.0
 6395623,0.00039045,0.00010311,0.13856860,-0.05983860,-0.03791174,-0.00
 005397,-0.02613751,0.03721589,-0.00000400,0.04874139,-0.01998680,0.000
 02620,-0.13470019,-0.02314930,-0.00005559,0.72553983,0.01850463,0.0754
 9843,0.00002893,0.03964746,-0.05631541,0.00001266,-0.08331277,-0.03884
 261,-0.00006594,0.05618828,-0.34795770,-0.00002552,0.04660813,0.711748
 40,-0.00003816,-0.00000877,0.00671107,-0.00000565,0.00001196,-0.003150
 78,0.00000705,-0.00002565,0.00392692,-0.00003315,-0.00008258,-0.064013
 90,0.00038524,0.00017147,0.14156010,-0.27306245,-0.05281265,-0.0001489
 8,0.04847029,-0.07727090,0.00000714,-0.07785914,-0.00593596,-0.0000505
 4,0.03207391,0.08841609,0.00004308,-0.29864018,0.03666480,-0.00013853,
 0.72430224,-0.12438443,-0.18352791,-0.00011651,-0.02204419,-0.03546708
 ,-0.00002769,-0.00550219,-0.00550088,-0.00000376,0.03242674,-0.0191826
 5,0.00001295,0.10819923,-0.16254689,0.00004065,0.00206942,0.65403159,-
 0.00016549,-0.00007207,-0.06607494,0.00001812,-0.00006089,0.00567105,-
 0.00004794,-0.00000242,-0.00600573,0.00002818,0.00005198,0.00636608,-0
 .00012097,-0.00000943,-0.06458606,0.00036757,0.00011255,0.14884361,0.0
 1439798,-0.02248713,-0.00000261,-0.00484954,-0.00776010,-0.00001149,-0
 .00520300,0.00013055,-0.00000343,-0.00598266,0.00490108,-0.00000758,0.
 00605685,0.02810635,0.00001413,-0.09726155,-0.00265257,-0.00000378,0.9
 2495094,-0.01235958,-0.02692778,-0.00001168,-0.00223317,0.00176532,-0.
 00000046,-0.00060124,0.00507383,0.00000108,0.00041358,0.00307774,0.000
 00055,0.01464380,-0.01159954,0.00000893,0.00827018,-0.20410365,-0.0000
 5502,-0.17835828,0.72544956,0.00001056,-0.00002042,0.00268961,-0.00001
 098,-0.00000828,0.00796899,-0.00000310,0.00000392,-0.00002859,-0.00000
 629,-0.00000030,0.00857794,-0.00000054,0.00001385,0.00118222,-0.000002
 89,-0.00000754,-0.08592001,0.00055575,-0.00026179,0.21580133,-0.006479
 37,-0.00499796,-0.00000263,0.00134786,0.00150671,0.00000272,0.00014595
 ,0.00029076,0.00000015,0.00031451,0.00078132,0.00000248,0.00274087,0.0
 0143168,0.00000036,-0.01301144,0.02822781,-0.00003300,-0.60476301,0.28
 263593,-0.00051071,0.73101042,0.00305737,-0.00125812,0.00000074,0.0002
 8302,0.00139237,0.00000082,0.00182578,-0.00175155,0.00000072,0.0020637
 4,-0.00247349,-0.00000042,-0.00624659,-0.00654277,-0.00000647,0.047759
 53,-0.02863598,0.00004461,0.27328298,-0.27640665,0.00028034,-0.3173766
 4,0.27531258,-0.00000685,-0.00000567,0.00018584,0.00000202,0.00000313,
 -0.00083883,0.00000108,-0.00000084,-0.00006515,-0.00000044,0.00000072,
 -0.00182517,0.00000219,0.00000384,0.00217893,-0.00002791,0.00000723,0.
 02184539,-0.00052116,0.00030226,-0.07945348,0.00062565,-0.00031097,0.0
 3344274,0.00105192,0.00065220,0.00000086,0.00085447,0.00017221,0.00000
 043,0.00024374,-0.00080210,0.00000003,0.00108786,-0.00072971,0.0000004
 4,-0.00392694,0.00077878,-0.00000475,-0.00075974,-0.01044366,0.0000019
 0,-0.23420241,-0.06027170,-0.00005517,-0.11449002,-0.01317209,-0.00007
 637,0.41942154,0.00582036,-0.00529216,0.00000208,-0.00162891,-0.002113
 50,-0.00000302,-0.00120581,-0.00153584,-0.00000126,-0.00017854,0.00086
 876,0.00000052,-0.00094862,-0.00525163,-0.00000102,-0.04068384,-0.0322
 0307,-0.00000723,-0.08754491,-0.18109886,-0.00000346,-0.00181569,0.038
 99505,-0.00000438,-0.00052432,0.66960212,-0.00000108,0.00000200,0.0012
 0103,0.00000173,0.00000015,-0.00048335,-0.00000028,-0.00000055,-0.0000
 2379,0.00000050,0.00000074,-0.00075660,-0.00000136,0.00000132,0.000393
 45,-0.00000315,-0.00001406,0.01180768,-0.00002627,0.00001656,-0.065572
 67,-0.00008849,-0.00000998,0.02978737,0.00017290,-0.00019254,0.0387800
 1,-0.00772365,0.00551737,-0.00001040,0.01175762,0.02829960,0.00001337,
 -0.11010886,0.00167101,-0.00000589,0.01762814,-0.02168863,0.00000573,-
 0.00627748,-0.00724747,-0.00001294,-0.00540243,-0.00068934,-0.00000281
 ,-0.00046323,0.00068012,0.00000110,-0.00012401,0.00010912,-0.00000032,
 -0.00037238,-0.00067533,-0.00000019,1.03493957,0.00265094,0.00568135,0
 .00000256,0.01913332,-0.02713934,0.00000768,0.00186949,-0.13297597,-0.
 00000876,-0.01260782,-0.03327301,-0.00001781,-0.00443922,0.00425609,-0
 .00000330,-0.00035733,0.00395725,0.00000061,-0.00006188,-0.00924882,-0
 .00000214,-0.00159844,0.00386805,-0.00000084,0.00170029,0.00314401,0.0
 0000039,0.02484327,0.70004348,-0.00001071,0.00000392,0.00910744,0.0000
 1337,0.00000732,0.00034295,-0.00000336,-0.00000806,-0.09140190,0.00001
 092,-0.00001549,0.00037192,-0.00000966,-0.00000951,0.00918941,-0.00000
 544,0.00000114,-0.00089638,0.00000084,-0.00000191,-0.00158149,-0.00000
 105,0.00000111,0.00017853,-0.00000003,0.00000005,0.00007376,0.00084887
 ,0.00014872,0.24932994,0.00028973,0.00084551,0.00000293,0.00243213,0.0
 0224754,0.00000032,-0.01819943,0.03154951,-0.00003585,-0.00656769,-0.0
 0713360,-0.00000584,0.00153043,0.00201258,0.00000279,0.00054889,-0.000
 10476,0.00000007,-0.00024511,-0.00136676,-0.00000078,0.00023638,0.0004
 3648,0.00000037,0.00059991,0.00076598,0.00000013,-0.49263453,0.1851890
 0,-0.00039836,0.64613933,0.00207652,-0.00259620,-0.00000054,-0.0063423
 6,-0.00579250,-0.00000510,0.05215860,-0.02964988,0.00004231,0.00138031
 ,-0.00539617,0.00000194,0.00085779,0.00114606,0.00000028,0.00169006,-0
 .00155166,0.00000036,0.00035439,0.00350719,0.00000088,0.00046973,-0.00
 167893,0.00000029,-0.00082545,-0.00139454,-0.00000012,0.17873644,-0.23
 057865,0.00015880,-0.20850875,0.22720473,0.00000077,0.00000024,-0.0013
 1705,-0.00000012,0.00000210,0.00234529,-0.00003127,0.00002151,0.022320
 54,-0.00000593,-0.00000941,0.00089943,0.00000086,0.00000347,-0.0007724
 2,0.00000155,-0.00000062,0.00003068,-0.00000022,-0.00000028,0.00005860
 ,0.00000040,0.00000005,0.00003108,0.00000035,0.00000044,0.00002803,-0.
 00039852,0.00016487,-0.08307186,0.00061986,-0.00018102,0.03029988,0.00
 192099,-0.00186349,0.00000135,-0.00735101,0.00673576,-0.00000275,-0.00
 647419,-0.02807430,-0.00003908,0.00168605,-0.00118291,-0.00000073,0.00
 068421,-0.00033268,0.00000249,0.00063396,0.00042060,0.00000040,-0.0000
 4341,0.00085612,0.00000020,0.00046644,-0.00055300,0.00000036,0.0001543
 9,-0.00007186,0.00000003,-0.43504644,-0.21549187,-0.00044377,-0.138672
 54,-0.02347824,-0.00019184,0.57759234,-0.00069739,0.00073951,-0.000000
 02,-0.00166344,-0.00457873,-0.00000490,-0.04884520,-0.04140221,-0.0000
 6972,0.00740323,-0.00509147,0.00000203,-0.00156971,-0.00291355,-0.0000
 0031,-0.00150600,-0.00174737,-0.00000133,-0.00044837,0.00361810,0.0000
 0020,0.00090130,-0.00169099,0.00000074,-0.00050734,-0.00141109,-0.0000
 0001,-0.20898848,-0.28904966,-0.00028797,-0.00462505,0.05193006,0.0000
 0080,0.26038303,0.29650135,0.00000115,-0.00000225,-0.00076661,-0.00000
 717,0.00000582,0.00087040,-0.00004567,-0.00004944,0.02234405,0.0000027
 6,-0.00000545,0.00233582,-0.00000028,-0.00000020,-0.00135034,0.0000009
 8,-0.00000001,0.00005255,-0.00000026,0.00000176,0.00006093,0.00000070,
 -0.00000103,0.00001714,0.00000003,-0.00000047,0.00001613,-0.00043995,-
 0.00029367,-0.08311484,-0.00018688,-0.00001954,0.02900455,0.00067100,0
 .00036386,0.03033344,-0.29029206,0.11589441,-0.00012856,0.00473615,-0.
 00180123,-0.00000081,0.00136136,-0.00060187,-0.00000426,0.00035574,-0.
 00069621,0.00000060,-0.00250711,-0.00382563,-0.00000663,-0.01895743,0.
 01251332,-0.00001231,-0.00269527,0.00186682,0.00000097,0.00223923,0.00
 094229,0.00000223,0.00076677,0.00004939,0.00000008,0.00032983,-0.00027
 620,-0.00000003,0.00006235,-0.00014881,0.00000029,-0.00001964,0.000039
 26,-0.00000005,0.30506872,0.11744260,-0.11705057,0.00005512,0.02718375
 ,-0.00866737,0.00001335,-0.00071635,-0.00479157,-0.00000394,-0.0007360
 5,-0.00103024,-0.00000055,-0.00355846,-0.00204674,-0.00000449,-0.01483
 750,0.01309146,-0.00000687,-0.00247518,0.00058284,0.00000016,0.0008628
 1,-0.00207171,0.00000036,0.00149465,0.00051389,0.00000023,0.00168237,0
 .00032734,0.00000139,0.00027089,-0.00075891,0.00000021,-0.00029296,-0.
 00011529,-0.00000028,-0.12492372,0.12028390,-0.00013178,0.00005197,-0.
 04154098,0.00000712,-0.00000331,0.00473799,-0.00000326,-0.00000389,0.0
 0774698,0.00000019,-0.00000128,-0.00094859,-0.00000713,-0.00000425,0.0
 0603711,-0.00001604,0.00001275,0.00490152,0.00000032,0.00000037,-0.004
 01110,0.00000125,0.00000059,-0.00025682,0.00000083,0.00000050,0.000101
 37,0.00000070,0.00000006,0.00024281,0.00000036,-0.00000040,-0.00030413
 ,-0.00000026,-0.00000022,0.00008400,0.00014540,-0.00005542,0.02775959,
 0.00861044,0.00368752,0.00000319,-0.25570383,-0.13816244,-0.00017759,-
 0.01822981,-0.01727499,-0.00002004,-0.00341096,0.00371966,-0.00000506,
 0.00018744,0.00084355,0.00000107,0.00110548,0.00177088,-0.00000365,0.0
 0043193,-0.00000869,0.00000053,-0.00009506,0.00003824,-0.00000019,0.00
 003063,0.00022265,-0.00000002,-0.00339914,-0.00294541,-0.00000141,0.00
 149339,0.00004019,0.00000131,0.00314492,-0.00030326,0.00000213,0.00046
 444,-0.00040027,0.00000295,0.26608688,-0.02446964,-0.01085903,-0.00002
 007,-0.14029821,-0.15470224,-0.00011996,0.00935598,0.01290771,0.000007
 99,0.00347706,-0.00097264,0.00000085,0.00099223,-0.00095342,0.00000073
 ,0.00129371,-0.00475778,-0.00000321,-0.00152111,0.00028935,-0.00000123
 ,0.00033214,-0.00008518,0.00000042,0.00000934,-0.00060567,0.00000018,0
 .00044103,0.00057355,0.00000222,-0.00158638,0.00039402,-0.00000185,0.0
 0133003,-0.00488229,-0.00000089,0.00032667,0.00120651,0.00000179,0.149
 77020,0.16178278,-0.00000333,-0.00000131,0.00473123,-0.00017836,-0.000
 12012,-0.04028274,-0.00001348,-0.00000711,0.00511480,-0.00000493,0.000
 00032,0.00551270,0.00000114,0.00000078,-0.00112373,-0.00000442,-0.0000
 0172,0.00777441,0.00000037,-0.00000037,0.00002543,-0.00000019,0.000000
 14,0.00008074,0.00000012,0.00000020,-0.00010002,0.00000103,-0.00000260
 ,-0.00447751,-0.00000135,0.00000081,0.00045923,0.00000300,-0.00000237,
 -0.00006720,0.00000321,0.00000115,-0.00433357,0.00019727,0.00013258,0.
 02696478,0.00040588,-0.00067530,0.00000086,-0.00236065,-0.00392166,-0.
 00000633,-0.01871436,0.01272314,-0.00001240,-0.29343794,0.11789321,-0.
 00013916,0.00519374,-0.00146182,0.00000012,0.00144178,-0.00084290,-0.0
 0000454,0.00025654,-0.00002866,-0.00000021,0.00002979,-0.00015025,0.00
 000026,-0.00003990,-0.00001790,0.,-0.00365524,0.00230879,-0.00000033,0
 .00309430,0.00147291,0.00000261,0.00124514,0.00008899,0.00000104,-0.00
 002375,0.00007520,0.00000053,-0.00074113,0.00073839,-0.00000067,0.3067
 9807,-0.00078940,-0.00117783,-0.00000055,-0.00367531,-0.00206446,-0.00
 000414,-0.01394572,0.01343952,-0.00000706,0.11999982,-0.11687701,0.000
 06003,0.02677803,-0.00751034,0.00001489,-0.00043296,-0.00512982,-0.000
 00371,0.00139929,0.00063358,0.00000031,0.00022835,-0.00072928,0.000000
 51,-0.00024706,-0.00011172,0.00000007,-0.00103895,0.00083840,-0.000000
 61,-0.00020480,-0.00494315,-0.00000066,0.00171134,0.00064396,0.0000021
 2,0.00008068,-0.00000968,0.00000021,-0.00095124,0.00073715,-0.00000046
 ,-0.12850533,0.12107712,0.00000097,-0.00000004,-0.00114350,-0.00000565
 ,-0.00000461,0.00550120,-0.00001982,0.00000856,0.00515001,-0.00013824,
 0.00005992,-0.04002184,0.00000699,-0.00000438,0.00470336,-0.00000377,-
 0.00000329,0.00758406,-0.00000005,-0.00000026,0.00009943,0.00000020,-0
 .00000014,-0.00018561,-0.00000002,0.00000001,0.00001844,0.00000049,0.0
 0000400,-0.00455302,0.00000228,0.00000094,-0.00008064,-0.00000055,-0.0
 0000080,0.00047562,0.00000054,0.00000029,-0.00082851,-0.00000115,0.000
 00030,0.00068180,0.00015480,-0.00006196,0.02684655,-0.00356246,0.00369
 588,-0.00000514,0.00010606,0.00086238,0.00000090,0.00113828,0.00134862
 ,-0.00000400,0.00762231,0.00394447,0.00000312,-0.25815700,-0.13531655,
 -0.00017327,-0.01787285,-0.01708627,-0.00001818,-0.00211150,-0.0021160
 3,0.00000182,0.00095325,0.00022507,0.00000022,0.00132519,-0.00039783,0
 .00000032,0.00048193,0.00035083,0.00000012,-0.00004172,-0.00006047,-0.
 00000007,0.00005397,0.00022262,0.00000040,-0.00081867,-0.00097559,-0.0
 0000112,0.00000023,-0.00008554,0.00000056,0.00049344,-0.00040851,0.000
 00301,0.26979327,0.00351607,-0.00074410,0.00000056,0.00091258,-0.00086
 427,0.00000057,0.00155995,-0.00457119,-0.00000153,-0.02544129,-0.01241
 437,-0.00002113,-0.13719809,-0.15113919,-0.00011619,0.01095494,0.01202
 941,0.00000967,0.00102291,0.00184130,0.00000145,-0.00085425,-0.0000305
 2,-0.00000078,0.00050704,-0.00426758,0.00000083,-0.00170641,0.00014097
 ,-0.00000100,0.00030330,-0.00008552,0.00000017,-0.00016338,-0.00080542
 ,-0.00000047,0.00070452,0.00063694,0.00000050,-0.00007492,-0.00001831,
 0.00000014,0.00029857,0.00118875,0.00000142,0.14563197,0.15910642,-0.0
 0000477,0.00000119,0.00635373,0.00000116,-0.00000048,-0.00096817,-0.00
 000461,-0.00000209,0.00771876,-0.00000494,-0.00000061,0.00474252,-0.00
 016940,-0.00011636,-0.04074116,-0.00001491,-0.00000723,0.00397883,0.00
 000162,-0.00000171,-0.00407453,-0.00000011,0.00000061,0.00061396,0.000
 00099,-0.00000006,0.00018830,-0.00000032,0.00000008,0.00026491,-0.0000
 0005,0.00000012,0.00007559,0.00000021,0.00000012,-0.00030428,-0.000000
 57,-0.00000062,0.00041876,0.00000065,0.00000016,-0.00090715,0.00000340
 ,0.00000098,-0.00426864,0.00019111,0.00012590,0.02701787,0.00061299,-0
 .00113635,-0.00000029,-0.00039886,-0.00024697,-0.00000042,-0.00016130,
 0.00023109,0.,0.00030482,0.00015381,0.00000009,-0.00048974,0.00071069,
 -0.00000016,-0.00574935,-0.00187769,-0.00000358,0.01172644,-0.05202241
 ,0.00001973,-0.00052180,0.00747493,-0.00000115,-0.07174503,0.12883517,
 -0.00005486,0.00007031,-0.00026774,0.00000002,-0.00006582,0.00012714,-
 0.00000003,0.00002481,0.00011580,0.00000005,-0.00007065,-0.00009618,-0
 .00000006,0.00002414,-0.00010590,0.00000004,0.00001429,0.00000176,-0.0
 0000003,0.00059627,0.00002650,0.00000054,0.06582846,0.00039900,-0.0006
 7570,0.00000060,-0.00046986,0.00010634,-0.00000058,0.00007980,0.000283
 13,0.00000017,0.00010192,-0.00002994,-0.00000001,-0.00028658,0.0009708
 1,-0.00000012,-0.00328158,0.00124502,0.00000240,-0.00588801,-0.0364535
 0,0.00000403,0.00897443,0.00378713,0.00000398,0.08220890,-0.47783817,0
 .00019479,0.00005427,-0.00056505,-0.00000013,-0.00009070,0.00024403,-0
 .00000002,0.00006783,0.00025508,0.00000016,-0.00014369,-0.00010081,0.0
 0000004,0.00002834,-0.00005453,-0.00000007,0.00000462,-0.00000518,0.00
 000003,0.00016496,-0.00000331,0.,-0.08192364,0.50883466,-0.00000049,0.
 00000010,0.00046153,0.00000069,-0.00000029,-0.00038996,-0.00000039,-0.
 00000025,-0.00000748,-0.00000011,0.00000049,0.00008843,0.00000030,-0.0
 0000074,-0.00014419,-0.00000375,-0.00000485,0.00462728,0.00000382,0.00
 000198,0.00417740,0.00000228,-0.00000071,-0.00573666,-0.00004252,0.000
 20963,-0.01545915,0.00000004,0.00000017,-0.00000467,0.,0.,-0.00000681,
 -0.00000008,-0.00000009,0.00000865,-0.00000009,-0.00000009,0.00019357,
 0.,0.,-0.00005321,0.00000001,0.00000004,0.00002128,0.00000021,-0.00000
 010,-0.00010928,0.00004010,-0.00020526,0.01233326\\0.00006687,0.000058
 67,-0.00000412,0.00007276,-0.00001097,0.00000456,0.00001133,0.00010789
 ,-0.00000013,-0.00007905,-0.00005900,0.00000352,-0.00009303,0.00008441
 ,-0.00000394,0.00000479,-0.00027300,-0.00005274,0.00004922,0.00017426,
 0.00017050,-0.00003601,-0.00001768,-0.00006438,0.00000354,-0.00004068,
 -0.00004920,0.00002628,-0.00002272,-0.00000170,0.00003397,0.00004424,0
 .00000169,-0.00005991,-0.00002209,-0.00000072,-0.00001656,-0.00000874,
 -0.00000051,-0.00002059,-0.00000007,0.00000029,0.00003211,-0.00000319,
 0.00000011,0.00002220,-0.00000388,-0.00000096,-0.00001792,-0.00000744,
 -0.00000228\\\@
 The archive entry for this job was punched.


 CONFIDENCE: THAT QUIET ASSURED FEELING YOU HAVE
 JUST BEFORE YOU FALL FLAT ON YOUR FACE.
 Job cpu time:       0 days 20 hours 49 minutes 42.1 seconds.
 Elapsed time:       0 days  0 hours 31 minutes 15.5 seconds.
 File lengths (MBytes):  RWF=    538 Int=      0 D2E=      0 Chk=     41 Scr=      1
 Normal termination of Gaussian 16 at Mon Sep  5 21:10:16 2022.
