 Entering Gaussian System, Link 0=g16
 Initial command:
 /usr/local/gaussian16c01/g16/l1.exe "/scr/dhuang/Gau-43700.inp" -scrdir="/scr/dhuang/"
 Entering Link 1 = /usr/local/gaussian16c01/g16/l1.exe PID=     43702.
  
 Copyright (c) 1988-2019, Gaussian, Inc.  All Rights Reserved.
  
 This is part of the Gaussian(R) 16 program.  It is based on
 the Gaussian(R) 09 system (copyright 2009, Gaussian, Inc.),
 the Gaussian(R) 03 system (copyright 2003, Gaussian, Inc.),
 the Gaussian(R) 98 system (copyright 1998, Gaussian, Inc.),
 the Gaussian(R) 94 system (copyright 1995, Gaussian, Inc.),
 the Gaussian 92(TM) system (copyright 1992, Gaussian, Inc.),
 the Gaussian 90(TM) system (copyright 1990, Gaussian, Inc.),
 the Gaussian 88(TM) system (copyright 1988, Gaussian, Inc.),
 the Gaussian 86(TM) system (copyright 1986, Carnegie Mellon
 University), and the Gaussian 82(TM) system (copyright 1983,
 Carnegie Mellon University). Gaussian is a federally registered
 trademark of Gaussian, Inc.
  
 This software contains proprietary and confidential information,
 including trade secrets, belonging to Gaussian, Inc.
  
 This software is provided under written license and may be
 used, copied, transmitted, or stored only in accord with that
 written license.
  
 The following legend is applicable only to US Government
 contracts under FAR:
  
                    RESTRICTED RIGHTS LEGEND
  
 Use, reproduction and disclosure by the US Government is
 subject to restrictions as set forth in subparagraphs (a)
 and (c) of the Commercial Computer Software - Restricted
 Rights clause in FAR 52.227-19.
  
 Gaussian, Inc.
 340 Quinnipiac St., Bldg. 40, Wallingford CT 06492
  
  
 ---------------------------------------------------------------
 Warning -- This program may not be used in any manner that
 competes with the business of Gaussian, Inc. or will provide
 assistance to any competitor of Gaussian, Inc.  The licensee
 of this program is prohibited from giving any competitor of
 Gaussian, Inc. access to this program.  By using this program,
 the user acknowledges that Gaussian, Inc. is engaged in the
 business of creating and licensing software in the field of
 computational chemistry and represents and warrants to the
 licensee that it is not a competitor of Gaussian, Inc. and that
 it will not use this program in any manner prohibited above.
 ---------------------------------------------------------------
  

 Cite this work as:
 Gaussian 16, Revision C.01,
 M. J. Frisch, G. W. Trucks, H. B. Schlegel, G. E. Scuseria, 
 M. A. Robb, J. R. Cheeseman, G. Scalmani, V. Barone, 
 G. A. Petersson, H. Nakatsuji, X. Li, M. Caricato, A. V. Marenich, 
 J. Bloino, B. G. Janesko, R. Gomperts, B. Mennucci, H. P. Hratchian, 
 J. V. Ortiz, A. F. Izmaylov, J. L. Sonnenberg, D. Williams-Young, 
 F. Ding, F. Lipparini, F. Egidi, J. Goings, B. Peng, A. Petrone, 
 T. Henderson, D. Ranasinghe, V. G. Zakrzewski, J. Gao, N. Rega, 
 G. Zheng, W. Liang, M. Hada, M. Ehara, K. Toyota, R. Fukuda, 
 J. Hasegawa, M. Ishida, T. Nakajima, Y. Honda, O. Kitao, H. Nakai, 
 T. Vreven, K. Throssell, J. A. Montgomery, Jr., J. E. Peralta, 
 F. Ogliaro, M. J. Bearpark, J. J. Heyd, E. N. Brothers, K. N. Kudin, 
 V. N. Staroverov, T. A. Keith, R. Kobayashi, J. Normand, 
 K. Raghavachari, A. P. Rendell, J. C. Burant, S. S. Iyengar, 
 J. Tomasi, M. Cossi, J. M. Millam, M. Klene, C. Adamo, R. Cammi, 
 J. W. Ochterski, R. L. Martin, K. Morokuma, O. Farkas, 
 J. B. Foresman, and D. J. Fox, Gaussian, Inc., Wallingford CT, 2019.
 
 ******************************************
 Gaussian 16:  ES64L-G16RevC.01  3-Jul-2019
                 5-Sep-2022 
 ******************************************
 %nprocshared=40
 Will use up to   40 processors via shared memory.
 %mem=10000MW
 %chk=4-OMe.chk
 ------------------------------------
 # opt freq M062x/aug-cc-pvtz pop=nbo
 ------------------------------------
 1/18=20,19=15,26=3,38=1/1,3;
 2/9=110,12=2,17=6,18=5,40=1/2;
 3/5=16,6=1,7=10,11=2,25=1,30=1,71=1,74=-55/1,2,3;
 4//1;
 5/5=2,38=5/2;
 6/7=2,8=2,9=2,10=2,28=1,40=1/1,7;
 7//1,2,3,16;
 1/18=20,19=15,26=3/3(2);
 2/9=110/2;
 99//99;
 2/9=110/2;
 3/5=16,6=1,7=10,11=2,25=1,30=1,71=1,74=-55/1,2,3;
 4/5=5,16=3,69=1/1;
 5/5=2,38=5/2;
 7//1,2,3,16;
 1/18=20,19=15,26=3/3(-5);
 2/9=110/2;
 6/7=2,8=2,9=2,10=2,19=2,28=1,40=1/1,7;
 99/9=1/99;
 ------------------
 4-OMe_benzoic-acid
 ------------------
 Symbolic Z-matrix:
 Charge =  0 Multiplicity = 1
 C                    -1.1759    0.6853   -0.0023 
 C                    -1.1019   -0.6547   -0.0027 
 C                     0.0678   -1.3225   -0.0021 
 C                     1.1779   -0.5582   -0.0008 
 C                     1.1235    0.7839   -0.0004 
 C                    -0.056     1.4296   -0.0011 
 C                    -0.097     2.7934   -0.0006 
 O                    -1.1343    3.4218   -0.0013 
 O                     1.0276    3.5519    0.0006 
 O                     0.044    -2.697    -0.0025 
 C                     1.2668   -3.3967   -0.0008 
 H                    -2.1796    1.1422   -0.0029 
 H                    -2.0405   -1.2361   -0.0037 
 H                     2.1796   -1.017    -0.0001 
 H                     2.0787    1.3357    0.0006 
 H                     0.7621    4.4856    0.0007 
 H                     1.0352   -4.4856   -0.0013 
 H                     1.8466   -3.1651   -0.922 
 H                     1.844    -3.1652    0.922 
 

 GradGradGradGradGradGradGradGradGradGradGradGradGradGradGradGradGradGrad
 Berny optimization.
 Initialization pass.
                           ----------------------------
                           !    Initial Parameters    !
                           ! (Angstroms and Degrees)  !
 --------------------------                            --------------------------
 ! Name  Definition              Value          Derivative Info.                !
 --------------------------------------------------------------------------------
 ! R1    R(1,2)                  1.342          estimate D2E/DX2                !
 ! R2    R(1,6)                  1.3447         estimate D2E/DX2                !
 ! R3    R(1,12)                 1.1028         estimate D2E/DX2                !
 ! R4    R(2,3)                  1.3469         estimate D2E/DX2                !
 ! R5    R(2,13)                 1.1041         estimate D2E/DX2                !
 ! R6    R(3,4)                  1.3478         estimate D2E/DX2                !
 ! R7    R(3,10)                 1.3747         estimate D2E/DX2                !
 ! R8    R(4,5)                  1.3432         estimate D2E/DX2                !
 ! R9    R(4,14)                 1.1018         estimate D2E/DX2                !
 ! R10   R(5,6)                  1.3447         estimate D2E/DX2                !
 ! R11   R(5,15)                 1.1031         estimate D2E/DX2                !
 ! R12   R(6,7)                  1.3644         estimate D2E/DX2                !
 ! R13   R(7,8)                  1.2128         estimate D2E/DX2                !
 ! R14   R(7,9)                  1.3565         estimate D2E/DX2                !
 ! R15   R(9,16)                 0.9707         estimate D2E/DX2                !
 ! R16   R(10,11)                1.4088         estimate D2E/DX2                !
 ! R17   R(11,17)                1.1133         estimate D2E/DX2                !
 ! R18   R(11,18)                1.1128         estimate D2E/DX2                !
 ! R19   R(11,19)                1.1128         estimate D2E/DX2                !
 ! A1    A(2,1,6)              120.4476         estimate D2E/DX2                !
 ! A2    A(2,1,12)             117.6366         estimate D2E/DX2                !
 ! A3    A(6,1,12)             121.9157         estimate D2E/DX2                !
 ! A4    A(1,2,3)              122.8836         estimate D2E/DX2                !
 ! A5    A(1,2,13)             118.6146         estimate D2E/DX2                !
 ! A6    A(3,2,13)             118.5018         estimate D2E/DX2                !
 ! A7    A(2,3,4)              115.73           estimate D2E/DX2                !
 ! A8    A(2,3,10)             118.7307         estimate D2E/DX2                !
 ! A9    A(4,3,10)             125.5393         estimate D2E/DX2                !
 ! A10   A(3,4,5)              122.2262         estimate D2E/DX2                !
 ! A11   A(3,4,14)             120.844          estimate D2E/DX2                !
 ! A12   A(5,4,14)             116.9299         estimate D2E/DX2                !
 ! A13   A(4,5,6)              121.019          estimate D2E/DX2                !
 ! A14   A(4,5,15)             117.693          estimate D2E/DX2                !
 ! A15   A(6,5,15)             121.288          estimate D2E/DX2                !
 ! A16   A(1,6,5)              117.6936         estimate D2E/DX2                !
 ! A17   A(1,6,7)              121.8866         estimate D2E/DX2                !
 ! A18   A(5,6,7)              120.4198         estimate D2E/DX2                !
 ! A19   A(6,7,8)              122.9296         estimate D2E/DX2                !
 ! A20   A(6,7,9)              122.2762         estimate D2E/DX2                !
 ! A21   A(8,7,9)              114.7942         estimate D2E/DX2                !
 ! A22   A(7,9,16)             108.1249         estimate D2E/DX2                !
 ! A23   A(3,10,11)            118.7866         estimate D2E/DX2                !
 ! A24   A(10,11,17)           107.7712         estimate D2E/DX2                !
 ! A25   A(10,11,18)           110.3558         estimate D2E/DX2                !
 ! A26   A(10,11,19)           110.3577         estimate D2E/DX2                !
 ! A27   A(17,11,18)           108.1545         estimate D2E/DX2                !
 ! A28   A(17,11,19)           108.1656         estimate D2E/DX2                !
 ! A29   A(18,11,19)           111.8956         estimate D2E/DX2                !
 ! D1    D(6,1,2,3)             -0.0078         estimate D2E/DX2                !
 ! D2    D(6,1,2,13)          -179.9995         estimate D2E/DX2                !
 ! D3    D(12,1,2,3)           179.9973         estimate D2E/DX2                !
 ! D4    D(12,1,2,13)            0.0057         estimate D2E/DX2                !
 ! D5    D(2,1,6,5)              0.0034         estimate D2E/DX2                !
 ! D6    D(2,1,6,7)           -179.9968         estimate D2E/DX2                !
 ! D7    D(12,1,6,5)           179.998          estimate D2E/DX2                !
 ! D8    D(12,1,6,7)            -0.0022         estimate D2E/DX2                !
 ! D9    D(1,2,3,4)              0.0122         estimate D2E/DX2                !
 ! D10   D(1,2,3,10)           179.9962         estimate D2E/DX2                !
 ! D11   D(13,2,3,4)          -179.9961         estimate D2E/DX2                !
 ! D12   D(13,2,3,10)           -0.0122         estimate D2E/DX2                !
 ! D13   D(2,3,4,5)             -0.013          estimate D2E/DX2                !
 ! D14   D(2,3,4,14)           179.9923         estimate D2E/DX2                !
 ! D15   D(10,3,4,5)          -179.9957         estimate D2E/DX2                !
 ! D16   D(10,3,4,14)            0.0096         estimate D2E/DX2                !
 ! D17   D(2,3,10,11)         -179.9502         estimate D2E/DX2                !
 ! D18   D(4,3,10,11)            0.032          estimate D2E/DX2                !
 ! D19   D(3,4,5,6)              0.0095         estimate D2E/DX2                !
 ! D20   D(3,4,5,15)          -179.9951         estimate D2E/DX2                !
 ! D21   D(14,4,5,6)          -179.9956         estimate D2E/DX2                !
 ! D22   D(14,4,5,15)           -0.0002         estimate D2E/DX2                !
 ! D23   D(4,5,6,1)             -0.0042         estimate D2E/DX2                !
 ! D24   D(4,5,6,7)            179.996          estimate D2E/DX2                !
 ! D25   D(15,5,6,1)          -179.9994         estimate D2E/DX2                !
 ! D26   D(15,5,6,7)             0.0008         estimate D2E/DX2                !
 ! D27   D(1,6,7,8)             -0.0058         estimate D2E/DX2                !
 ! D28   D(1,6,7,9)           -179.9995         estimate D2E/DX2                !
 ! D29   D(5,6,7,8)            179.9939         estimate D2E/DX2                !
 ! D30   D(5,6,7,9)              0.0002         estimate D2E/DX2                !
 ! D31   D(6,7,9,16)           179.9968         estimate D2E/DX2                !
 ! D32   D(8,7,9,16)             0.0026         estimate D2E/DX2                !
 ! D33   D(3,10,11,17)         179.9922         estimate D2E/DX2                !
 ! D34   D(3,10,11,18)         -62.1096         estimate D2E/DX2                !
 ! D35   D(3,10,11,19)          62.0795         estimate D2E/DX2                !
 --------------------------------------------------------------------------------
 Trust Radius=3.00D-01 FncErr=1.00D-07 GrdErr=1.00D-06 EigMax=2.50D+02 EigMin=1.00D-04
 Number of steps in this run=     93 maximum allowed number of steps=    114.
 GradGradGradGradGradGradGradGradGradGradGradGradGradGradGradGradGradGrad

                          Input orientation:                          
 ---------------------------------------------------------------------
 Center     Atomic      Atomic             Coordinates (Angstroms)
 Number     Number       Type             X           Y           Z
 ---------------------------------------------------------------------
      1          6           0       -1.175900    0.685300   -0.002300
      2          6           0       -1.101900   -0.654700   -0.002700
      3          6           0        0.067800   -1.322500   -0.002100
      4          6           0        1.177900   -0.558200   -0.000800
      5          6           0        1.123500    0.783900   -0.000400
      6          6           0       -0.056000    1.429600   -0.001100
      7          6           0       -0.097000    2.793400   -0.000600
      8          8           0       -1.134300    3.421800   -0.001300
      9          8           0        1.027600    3.551900    0.000600
     10          8           0        0.044000   -2.697000   -0.002500
     11          6           0        1.266800   -3.396700   -0.000800
     12          1           0       -2.179600    1.142200   -0.002900
     13          1           0       -2.040500   -1.236100   -0.003700
     14          1           0        2.179600   -1.017000   -0.000100
     15          1           0        2.078700    1.335700    0.000600
     16          1           0        0.762100    4.485600    0.000700
     17          1           0        1.035200   -4.485600   -0.001300
     18          1           0        1.846600   -3.165100   -0.922000
     19          1           0        1.844000   -3.165200    0.922000
 ---------------------------------------------------------------------
                    Distance matrix (angstroms):
                    1          2          3          4          5
     1  C    0.000000
     2  C    1.342042   0.000000
     3  C    2.361790   1.346906   0.000000
     4  C    2.662080   2.281842   1.347768   0.000000
     5  C    2.301514   2.649902   2.356147   1.343202   0.000000
     6  C    1.344678   2.331998   2.754883   2.339628   1.344674
     7  C    2.368146   3.591549   4.119198   3.585888   2.351108
     8  O    2.736816   4.076629   4.894224   4.602898   3.472201
     9  O    3.615635   4.714898   4.967997   4.112847   2.769661
    10  O    3.595568   2.341810   1.374706   2.420784   3.644446
    11  C    4.757048   3.623439   2.395811   2.839892   4.183055
    12  H    1.102802   2.095301   3.335499   3.763532   3.322477
    13  H    2.106968   1.104082   2.110070   3.289020   3.753839
    14  H    3.762607   3.301441   2.133784   1.101772   2.087723
    15  H    3.318953   3.752055   3.333130   2.097212   1.103128
    16  H    4.265927   5.467832   5.849452   5.060910   3.719300
    17  H    5.623804   4.386684   3.307728   3.929992   5.270240
    18  H    4.980656   3.980059   2.721309   2.844591   4.119080
    19  H    4.980008   3.979448   2.721101   2.844591   4.118899
                    6          7          8          9         10
     6  C    0.000000
     7  C    1.364416   0.000000
     8  O    2.265302   1.212798   0.000000
     9  O    2.382929   1.356484   2.165812   0.000000
    10  O    4.127812   5.492211   6.231220   6.325838   0.000000
    11  C    5.004295   6.338556   7.228916   6.952716   1.408837
    12  H    2.142960   2.657760   2.507834   4.011583   4.436649
    13  H    3.323282   4.473709   4.745233   5.686669   2.545461
    14  H    3.314176   4.438700   5.539393   4.711895   2.717203
    15  H    2.136765   2.618885   3.830821   2.452826   4.516933
    16  H    3.163610   1.897787   2.174398   0.970714   7.218408
    17  H    6.015007   7.366527   8.199616   8.037504   2.044888
    18  H    5.057590   6.334847   7.288395   6.829351   2.077009
    19  H    5.057104   6.334318   7.287752   6.828976   2.076996
                   11         12         13         14         15
    11  C    0.000000
    12  H    5.699060   0.000000
    13  H    3.950498   2.382364   0.000000
    14  H    2.548760   4.864646   4.225785   0.000000
    15  H    4.801541   4.262696   4.856128   2.354863   0.000000
    16  H    7.898441   4.453306   6.371219   5.682245   3.413987
    17  H    1.113257   6.481286   4.474281   3.652511   5.914087
    18  H    1.112841   5.967233   4.435523   2.361170   4.600246
    19  H    1.112795   5.966447   4.434827   2.361707   4.600235
                   16         17         18         19
    16  H    0.000000
    17  H    8.975356   0.000000
    18  H    7.782077   1.802714   0.000000
    19  H    7.781648   1.802802   1.844002   0.000000
 Stoichiometry    C8H8O3
 Framework group  C1[X(C8H8O3)]
 Deg. of freedom    51
 Full point group                 C1      NOp   1
 Largest Abelian subgroup         C1      NOp   1
 Largest concise Abelian subgroup C1      NOp   1
                         Standard orientation:                         
 ---------------------------------------------------------------------
 Center     Atomic      Atomic             Coordinates (Angstroms)
 Number     Number       Type             X           Y           Z
 ---------------------------------------------------------------------
      1          6           0        0.511536    1.276202    0.000027
      2          6           0       -0.827477    1.366313   -0.000039
      3          6           0       -1.633055    0.286869   -0.000312
      4          6           0       -1.009966   -0.908220   -0.000259
      5          6           0        0.328739   -1.018041   -0.000211
      6          6           0        1.113579    0.073827   -0.000023
      7          6           0        2.472186   -0.051942    0.000106
      8          8           0        3.222498    0.900901    0.000169
      9          8           0        3.087748   -1.260715    0.000048
     10          8           0       -2.994373    0.478260   -0.000278
     11          6           0       -3.838093   -0.649995    0.000510
     12          1           0        1.087530    2.216629    0.000210
     13          1           0       -1.289966    2.368860   -0.000005
     14          1           0       -1.587601   -1.846431   -0.000340
     15          1           0        0.759824   -2.033451   -0.000252
     16          1           0        4.046874   -1.111166    0.000111
     17          1           0       -4.890583   -0.287217    0.000549
     18          1           0       -3.679165   -1.252856   -0.921290
     19          1           0       -3.678605   -1.252009    0.922711
 ---------------------------------------------------------------------
 Rotational constants (GHZ):           3.6948661           0.5883244           0.5092668
 Standard basis: Aug-CC-pVTZ (5D, 7F)
 There are   805 symmetry adapted cartesian basis functions of A   symmetry.
 There are   690 symmetry adapted basis functions of A   symmetry.
   690 basis functions,  1008 primitive gaussians,   805 cartesian basis functions
    40 alpha electrons       40 beta electrons
       nuclear repulsion energy       587.1219453282 Hartrees.
 NAtoms=   19 NActive=   19 NUniq=   19 SFac= 1.00D+00 NAtFMM=   60 NAOKFM=F Big=F
 Integral buffers will be    131072 words long.
 Raffenetti 2 integral format.
 Two-electron integral symmetry is turned on.
 One-electron integrals computed using PRISM.
 NBasis=   690 RedAO= T EigKep=  1.08D-06  NBF=   690
 NBsUse=   687 1.00D-06 EigRej=  8.08D-07 NBFU=   687
 ExpMin= 2.53D-02 ExpMax= 1.53D+04 ExpMxC= 5.22D+02 IAcc=3 IRadAn=         5 AccDes= 0.00D+00
 Harris functional with IExCor= 1009 and IRadAn=       5 diagonalized for initial guess.
 HarFok:  IExCor= 1009 AccDes= 0.00D+00 IRadAn=         5 IDoV= 1 UseB2=F ITyADJ=14
 ICtDFT=  3500011 ScaDFX=  1.000000  1.000000  1.000000  1.000000
 FoFCou: FMM=F IPFlag=           0 FMFlag=      100000 FMFlg1=           0
         NFxFlg=           0 DoJE=T BraDBF=F KetDBF=T FulRan=T
         wScrn=  0.000000 ICntrl=       500 IOpCl=  0 I1Cent=   200000004 NGrid=           0
         NMat0=    1 NMatS0=      1 NMatT0=    0 NMatD0=    1 NMtDS0=    0 NMtDT0=    0
 Petite list used in FoFCou.
 Requested convergence on RMS density matrix=1.00D-08 within 128 cycles.
 Requested convergence on MAX density matrix=1.00D-06.
 Requested convergence on             energy=1.00D-06.
 No special actions if energy rises.
 SCF Done:  E(RM062X) =  -535.315145119     A.U. after   14 cycles
            NFock= 14  Conv=0.38D-08     -V/T= 2.0037

 **********************************************************************

            Population analysis using the SCF Density.

 **********************************************************************

 Orbital symmetries:
       Occupied  (A) (A) (A) (A) (A) (A) (A) (A) (A) (A) (A) (A)
                 (A) (A) (A) (A) (A) (A) (A) (A) (A) (A) (A) (A)
                 (A) (A) (A) (A) (A) (A) (A) (A) (A) (A) (A) (A)
                 (A) (A) (A) (A)
       Virtual   (A) (A) (A) (A) (A) (A) (A) (A) (A) (A) (A) (A)
                 (A) (A) (A) (A) (A) (A) (A) (A) (A) (A) (A) (A)
                 (A) (A) (A) (A) (A) (A) (A) (A) (A) (A) (A) (A)
                 (A) (A) (A) (A) (A) (A) (A) (A) (A) (A) (A) (A)
                 (A) (A) (A) (A) (A) (A) (A) (A) (A) (A) (A) (A)
                 (A) (A) (A) (A) (A) (A) (A) (A) (A) (A) (A) (A)
                 (A) (A) (A) (A) (A) (A) (A) (A) (A) (A) (A) (A)
                 (A) (A) (A) (A) (A) (A) (A) (A) (A) (A) (A) (A)
                 (A) (A) (A) (A) (A) (A) (A) (A) (A) (A) (A) (A)
                 (A) (A) (A) (A) (A) (A) (A) (A) (A) (A) (A) (A)
                 (A) (A) (A) (A) (A) (A) (A) (A) (A) (A) (A) (A)
                 (A) (A) (A) (A) (A) (A) (A) (A) (A) (A) (A) (A)
                 (A) (A) (A) (A) (A) (A) (A) (A) (A) (A) (A) (A)
                 (A) (A) (A) (A) (A) (A) (A) (A) (A) (A) (A) (A)
                 (A) (A) (A) (A) (A) (A) (A) (A) (A) (A) (A) (A)
                 (A) (A) (A) (A) (A) (A) (A) (A) (A) (A) (A) (A)
                 (A) (A) (A) (A) (A) (A) (A) (A) (A) (A) (A) (A)
                 (A) (A) (A) (A) (A) (A) (A) (A) (A) (A) (A) (A)
                 (A) (A) (A) (A) (A) (A) (A) (A) (A) (A) (A) (A)
                 (A) (A) (A) (A) (A) (A) (A) (A) (A) (A) (A) (A)
                 (A) (A) (A) (A) (A) (A) (A) (A) (A) (A) (A) (A)
                 (A) (A) (A) (A) (A) (A) (A) (A) (A) (A) (A) (A)
                 (A) (A) (A) (A) (A) (A) (A) (A) (A) (A) (A) (A)
                 (A) (A) (A) (A) (A) (A) (A) (A) (A) (A) (A) (A)
                 (A) (A) (A) (A) (A) (A) (A) (A) (A) (A) (A) (A)
                 (A) (A) (A) (A) (A) (A) (A) (A) (A) (A) (A) (A)
                 (A) (A) (A) (A) (A) (A) (A) (A) (A) (A) (A) (A)
                 (A) (A) (A) (A) (A) (A) (A) (A) (A) (A) (A) (A)
                 (A) (A) (A) (A) (A) (A) (A) (A) (A) (A) (A) (A)
                 (A) (A) (A) (A) (A) (A) (A) (A) (A) (A) (A) (A)
                 (A) (A) (A) (A) (A) (A) (A) (A) (A) (A) (A) (A)
                 (A) (A) (A) (A) (A) (A) (A) (A) (A) (A) (A) (A)
                 (A) (A) (A) (A) (A) (A) (A) (A) (A) (A) (A) (A)
                 (A) (A) (A) (A) (A) (A) (A) (A) (A) (A) (A) (A)
                 (A) (A) (A) (A) (A) (A) (A) (A) (A) (A) (A) (A)
                 (A) (A) (A) (A) (A) (A) (A) (A) (A) (A) (A) (A)
                 (A) (A) (A) (A) (A) (A) (A) (A) (A) (A) (A) (A)
                 (A) (A) (A) (A) (A) (A) (A) (A) (A) (A) (A) (A)
                 (A) (A) (A) (A) (A) (A) (A) (A) (A) (A) (A) (A)
                 (A) (A) (A) (A) (A) (A) (A) (A) (A) (A) (A) (A)
                 (A) (A) (A) (A) (A) (A) (A) (A) (A) (A) (A) (A)
                 (A) (A) (A) (A) (A) (A) (A) (A) (A) (A) (A) (A)
                 (A) (A) (A) (A) (A) (A) (A) (A) (A) (A) (A) (A)
                 (A) (A) (A) (A) (A) (A) (A) (A) (A) (A) (A) (A)
                 (A) (A) (A) (A) (A) (A) (A) (A) (A) (A) (A) (A)
                 (A) (A) (A) (A) (A) (A) (A) (A) (A) (A) (A) (A)
                 (A) (A) (A) (A) (A) (A) (A) (A) (A) (A) (A) (A)
                 (A) (A) (A) (A) (A) (A) (A) (A) (A) (A) (A) (A)
                 (A) (A) (A) (A) (A) (A) (A) (A) (A) (A) (A) (A)
                 (A) (A) (A) (A) (A) (A) (A) (A) (A) (A) (A) (A)
                 (A) (A) (A) (A) (A) (A) (A) (A) (A) (A) (A) (A)
                 (A) (A) (A) (A) (A) (A) (A) (A) (A) (A) (A) (A)
                 (A) (A) (A) (A) (A) (A) (A) (A) (A) (A) (A) (A)
                 (A) (A) (A) (A) (A) (A) (A) (A) (A) (A) (A)
 The electronic state is 1-A.
 Alpha  occ. eigenvalues --  -19.67343 -19.66244 -19.59990 -10.66530 -10.61687
 Alpha  occ. eigenvalues --  -10.60971 -10.55631 -10.55378 -10.54801 -10.54438
 Alpha  occ. eigenvalues --  -10.54419  -1.23367  -1.20717  -1.12399  -1.01212
 Alpha  occ. eigenvalues --   -0.90667  -0.87547  -0.82089  -0.75051  -0.72217
 Alpha  occ. eigenvalues --   -0.67825  -0.63919  -0.60917  -0.58453  -0.56783
 Alpha  occ. eigenvalues --   -0.56159  -0.54232  -0.52170  -0.51526  -0.49613
 Alpha  occ. eigenvalues --   -0.49000  -0.47743  -0.46232  -0.43434  -0.41620
 Alpha  occ. eigenvalues --   -0.40135  -0.38793  -0.35066  -0.33461  -0.30828
 Alpha virt. eigenvalues --   -0.02258  -0.01113   0.00070   0.00538   0.01214
 Alpha virt. eigenvalues --    0.01354   0.01386   0.02459   0.03137   0.03780
 Alpha virt. eigenvalues --    0.04027   0.05010   0.05641   0.05879   0.07120
 Alpha virt. eigenvalues --    0.07172   0.07719   0.08043   0.08270   0.08553
 Alpha virt. eigenvalues --    0.09202   0.09492   0.09816   0.09907   0.10189
 Alpha virt. eigenvalues --    0.10612   0.10905   0.11010   0.11602   0.11942
 Alpha virt. eigenvalues --    0.12325   0.13276   0.13537   0.13650   0.14235
 Alpha virt. eigenvalues --    0.14814   0.15658   0.16516   0.17284   0.17779
 Alpha virt. eigenvalues --    0.18133   0.18274   0.19535   0.19716   0.20054
 Alpha virt. eigenvalues --    0.20383   0.20842   0.20933   0.22004   0.22210
 Alpha virt. eigenvalues --    0.22582   0.22916   0.23398   0.23707   0.23794
 Alpha virt. eigenvalues --    0.24069   0.25060   0.25067   0.25352   0.26496
 Alpha virt. eigenvalues --    0.26753   0.26992   0.27083   0.27668   0.27689
 Alpha virt. eigenvalues --    0.28127   0.28958   0.29273   0.29811   0.30191
 Alpha virt. eigenvalues --    0.30705   0.31940   0.32336   0.33362   0.33959
 Alpha virt. eigenvalues --    0.34040   0.34311   0.34510   0.34633   0.34806
 Alpha virt. eigenvalues --    0.35157   0.36021   0.36184   0.36513   0.36573
 Alpha virt. eigenvalues --    0.37633   0.37664   0.37923   0.38061   0.38603
 Alpha virt. eigenvalues --    0.38884   0.39847   0.40151   0.40276   0.40664
 Alpha virt. eigenvalues --    0.41115   0.41993   0.42011   0.42217   0.43760
 Alpha virt. eigenvalues --    0.43912   0.44199   0.44505   0.44734   0.45545
 Alpha virt. eigenvalues --    0.45986   0.46664   0.47540   0.48172   0.48957
 Alpha virt. eigenvalues --    0.49088   0.49473   0.51419   0.51764   0.52125
 Alpha virt. eigenvalues --    0.53331   0.53657   0.54704   0.54936   0.55057
 Alpha virt. eigenvalues --    0.55820   0.57046   0.57113   0.57962   0.58014
 Alpha virt. eigenvalues --    0.58771   0.59036   0.60076   0.60714   0.61837
 Alpha virt. eigenvalues --    0.62998   0.63841   0.64547   0.65109   0.65316
 Alpha virt. eigenvalues --    0.66931   0.67466   0.67813   0.67958   0.68963
 Alpha virt. eigenvalues --    0.69206   0.70271   0.71277   0.71368   0.72344
 Alpha virt. eigenvalues --    0.72564   0.73012   0.73230   0.73877   0.74363
 Alpha virt. eigenvalues --    0.75511   0.75732   0.76136   0.76352   0.77407
 Alpha virt. eigenvalues --    0.77930   0.78047   0.78193   0.78914   0.79189
 Alpha virt. eigenvalues --    0.79761   0.79944   0.80853   0.81219   0.82155
 Alpha virt. eigenvalues --    0.83048   0.83171   0.83436   0.83635   0.84334
 Alpha virt. eigenvalues --    0.84498   0.85064   0.85185   0.86452   0.87000
 Alpha virt. eigenvalues --    0.87275   0.87625   0.88246   0.88791   0.89269
 Alpha virt. eigenvalues --    0.89819   0.91045   0.91420   0.91521   0.91983
 Alpha virt. eigenvalues --    0.92130   0.92872   0.94081   0.94454   0.94743
 Alpha virt. eigenvalues --    0.95002   0.96622   0.96916   0.97890   0.98491
 Alpha virt. eigenvalues --    0.98702   0.99898   1.00131   1.00420   1.01305
 Alpha virt. eigenvalues --    1.01670   1.02863   1.03110   1.03297   1.04309
 Alpha virt. eigenvalues --    1.04852   1.05188   1.05808   1.05960   1.06263
 Alpha virt. eigenvalues --    1.06512   1.07238   1.07829   1.07881   1.10121
 Alpha virt. eigenvalues --    1.10645   1.10921   1.11176   1.11178   1.13266
 Alpha virt. eigenvalues --    1.13729   1.13846   1.14324   1.14596   1.16544
 Alpha virt. eigenvalues --    1.16677   1.17200   1.18708   1.19024   1.19873
 Alpha virt. eigenvalues --    1.20911   1.23292   1.23504   1.24058   1.25203
 Alpha virt. eigenvalues --    1.25672   1.26989   1.27368   1.27628   1.28473
 Alpha virt. eigenvalues --    1.29146   1.32148   1.32663   1.33307   1.34000
 Alpha virt. eigenvalues --    1.34028   1.35286   1.35737   1.36895   1.37268
 Alpha virt. eigenvalues --    1.37386   1.38336   1.40031   1.40444   1.40536
 Alpha virt. eigenvalues --    1.42218   1.44327   1.44623   1.45210   1.46054
 Alpha virt. eigenvalues --    1.46297   1.47303   1.47406   1.48775   1.49113
 Alpha virt. eigenvalues --    1.50055   1.51180   1.52024   1.52220   1.53082
 Alpha virt. eigenvalues --    1.54144   1.55664   1.55763   1.56383   1.57188
 Alpha virt. eigenvalues --    1.57599   1.58546   1.58635   1.59518   1.59906
 Alpha virt. eigenvalues --    1.60822   1.63835   1.63854   1.64983   1.65829
 Alpha virt. eigenvalues --    1.66445   1.67222   1.68679   1.69522   1.69705
 Alpha virt. eigenvalues --    1.71031   1.71537   1.72256   1.72429   1.73760
 Alpha virt. eigenvalues --    1.74198   1.74326   1.77378   1.78127   1.79517
 Alpha virt. eigenvalues --    1.80088   1.81106   1.81307   1.82368   1.83475
 Alpha virt. eigenvalues --    1.83631   1.84248   1.85908   1.86608   1.87111
 Alpha virt. eigenvalues --    1.88121   1.88721   1.89301   1.90162   1.91073
 Alpha virt. eigenvalues --    1.93526   1.94212   1.94874   1.95682   1.96855
 Alpha virt. eigenvalues --    1.97496   1.98934   1.99309   1.99364   2.01275
 Alpha virt. eigenvalues --    2.02692   2.03217   2.04225   2.05047   2.06381
 Alpha virt. eigenvalues --    2.06481   2.09005   2.09548   2.11627   2.13674
 Alpha virt. eigenvalues --    2.15370   2.16601   2.17724   2.17888   2.17999
 Alpha virt. eigenvalues --    2.18871   2.20409   2.23071   2.25204   2.25311
 Alpha virt. eigenvalues --    2.26012   2.27774   2.28364   2.29141   2.34362
 Alpha virt. eigenvalues --    2.34469   2.34653   2.35759   2.39197   2.39425
 Alpha virt. eigenvalues --    2.41659   2.42427   2.43355   2.43706   2.45176
 Alpha virt. eigenvalues --    2.46163   2.46541   2.47591   2.48806   2.51728
 Alpha virt. eigenvalues --    2.53926   2.54722   2.55295   2.56766   2.57517
 Alpha virt. eigenvalues --    2.57799   2.60182   2.60702   2.65007   2.67572
 Alpha virt. eigenvalues --    2.67588   2.70602   2.71795   2.72168   2.74232
 Alpha virt. eigenvalues --    2.76275   2.76402   2.79008   2.79011   2.80732
 Alpha virt. eigenvalues --    2.82118   2.83024   2.86364   2.89125   2.91279
 Alpha virt. eigenvalues --    2.93200   2.95893   2.96553   2.97454   2.97919
 Alpha virt. eigenvalues --    2.99473   3.00907   3.01713   3.03731   3.03817
 Alpha virt. eigenvalues --    3.06660   3.07859   3.09849   3.11956   3.12834
 Alpha virt. eigenvalues --    3.13401   3.13851   3.14509   3.15376   3.16394
 Alpha virt. eigenvalues --    3.17915   3.18637   3.19038   3.20530   3.21041
 Alpha virt. eigenvalues --    3.23047   3.25022   3.25590   3.26662   3.28274
 Alpha virt. eigenvalues --    3.28898   3.29476   3.29755   3.32012   3.32476
 Alpha virt. eigenvalues --    3.34863   3.35937   3.36092   3.36249   3.37477
 Alpha virt. eigenvalues --    3.38729   3.39657   3.42015   3.44228   3.45052
 Alpha virt. eigenvalues --    3.45989   3.46007   3.47548   3.48156   3.50050
 Alpha virt. eigenvalues --    3.50195   3.51628   3.52468   3.53698   3.54567
 Alpha virt. eigenvalues --    3.56550   3.57011   3.57253   3.57859   3.59152
 Alpha virt. eigenvalues --    3.59545   3.63183   3.64405   3.64464   3.65967
 Alpha virt. eigenvalues --    3.66498   3.67524   3.67765   3.68691   3.71755
 Alpha virt. eigenvalues --    3.73037   3.73511   3.75009   3.76582   3.77161
 Alpha virt. eigenvalues --    3.78715   3.80028   3.81264   3.83082   3.83781
 Alpha virt. eigenvalues --    3.85165   3.86357   3.86549   3.87001   3.88027
 Alpha virt. eigenvalues --    3.89267   3.91237   3.91585   3.93789   3.94267
 Alpha virt. eigenvalues --    3.95706   3.95936   3.97009   3.97866   3.98618
 Alpha virt. eigenvalues --    3.99390   3.99434   4.00921   4.02819   4.02901
 Alpha virt. eigenvalues --    4.03542   4.06686   4.08336   4.08569   4.10006
 Alpha virt. eigenvalues --    4.10442   4.11715   4.14649   4.14903   4.16373
 Alpha virt. eigenvalues --    4.17160   4.18417   4.20425   4.22768   4.22835
 Alpha virt. eigenvalues --    4.23300   4.24284   4.26413   4.27669   4.30294
 Alpha virt. eigenvalues --    4.30992   4.31918   4.33150   4.36575   4.38460
 Alpha virt. eigenvalues --    4.40834   4.41713   4.43179   4.43210   4.44741
 Alpha virt. eigenvalues --    4.46026   4.46110   4.48661   4.49542   4.51378
 Alpha virt. eigenvalues --    4.54307   4.58266   4.58487   4.60721   4.60943
 Alpha virt. eigenvalues --    4.61300   4.63299   4.65921   4.67074   4.67118
 Alpha virt. eigenvalues --    4.68310   4.68353   4.70376   4.71238   4.73396
 Alpha virt. eigenvalues --    4.73803   4.75454   4.76869   4.78926   4.79687
 Alpha virt. eigenvalues --    4.80861   4.85215   4.86188   4.88880   4.89656
 Alpha virt. eigenvalues --    4.91405   4.94723   4.97068   4.97937   4.98268
 Alpha virt. eigenvalues --    5.01497   5.03905   5.05305   5.05731   5.06879
 Alpha virt. eigenvalues --    5.08440   5.09938   5.11283   5.14219   5.16128
 Alpha virt. eigenvalues --    5.20662   5.21629   5.23638   5.24432   5.27436
 Alpha virt. eigenvalues --    5.31600   5.36717   5.37524   5.41101   5.45151
 Alpha virt. eigenvalues --    5.51975   5.55446   5.56383   5.58362   5.63739
 Alpha virt. eigenvalues --    5.68388   5.75101   5.79438   5.81724   5.91222
 Alpha virt. eigenvalues --    5.92139   5.94385   6.03840   6.05275   6.13463
 Alpha virt. eigenvalues --    6.15760   6.19237   6.24793   6.25418   6.27611
 Alpha virt. eigenvalues --    6.29881   6.34641   6.37941   6.40811   6.44236
 Alpha virt. eigenvalues --    6.46337   6.49196   6.52893   6.55437   6.56280
 Alpha virt. eigenvalues --    6.56945   6.64424   6.64455   6.68832   6.70581
 Alpha virt. eigenvalues --    6.72810   6.76103   6.80162   6.81135   6.83696
 Alpha virt. eigenvalues --    6.88390   6.91127   6.92246   6.94984   7.01766
 Alpha virt. eigenvalues --    7.05087   7.09249   7.11865   7.15136   7.19187
 Alpha virt. eigenvalues --    7.31111   7.35130   7.35312   7.37712   7.43486
 Alpha virt. eigenvalues --    7.53619   7.71717   7.85771   7.91399   8.02921
 Alpha virt. eigenvalues --    8.05531  15.49047  15.78280  15.88290  17.10170
 Alpha virt. eigenvalues --   17.27088  17.74204  18.28296  19.19176  20.14608
 Alpha virt. eigenvalues --   20.37372  20.85969
          Condensed to atoms (all electrons):
               1          2          3          4          5          6
     1  C    8.340883  -0.217631  -0.117101  -0.306047   0.227750  -0.869988
     2  C   -0.217631   7.283385  -0.203221  -0.151298  -0.307038   0.197064
     3  C   -0.117101  -0.203221   6.525067  -0.254316  -0.133938  -0.287411
     4  C   -0.306047  -0.151298  -0.254316   7.300197  -0.421743   0.009612
     5  C    0.227750  -0.307038  -0.133938  -0.421743   9.056254  -0.954624
     6  C   -0.869988   0.197064  -0.287411   0.009612  -0.954624   7.303665
     7  C   -0.411747  -0.102915   0.140666   0.026338  -0.704231  -0.617748
     8  O    0.027655  -0.045359  -0.002609  -0.011851   0.045928  -0.222735
     9  O    0.016662  -0.006684  -0.003173  -0.004303  -0.072806  -0.021607
    10  O    0.113526  -0.227556  -0.041043  -0.368387   0.075430  -0.047583
    11  C    0.018253  -0.073413   0.128844  -0.105464   0.013896  -0.006945
    12  H    0.721259  -0.697129   0.091018  -0.022867   0.092505  -0.524520
    13  H   -0.574684   0.723332  -0.359997   0.055929  -0.007494   0.067659
    14  H   -0.058259   0.012090  -0.662478   0.948615  -0.972254   0.209092
    15  H    0.142783  -0.031210   0.188150  -0.807278   0.923677  -0.653117
    16  H   -0.022225   0.003851  -0.000425   0.000687  -0.012495   0.025511
    17  H    0.006023  -0.006644   0.008351  -0.002470   0.003553  -0.002201
    18  H   -0.000056   0.003677   0.006818  -0.023753   0.008914  -0.002951
    19  H   -0.000075   0.003719   0.006800  -0.023721   0.008895  -0.002935
               7          8          9         10         11         12
     1  C   -0.411747   0.027655   0.016662   0.113526   0.018253   0.721259
     2  C   -0.102915  -0.045359  -0.006684  -0.227556  -0.073413  -0.697129
     3  C    0.140666  -0.002609  -0.003173  -0.041043   0.128844   0.091018
     4  C    0.026338  -0.011851  -0.004303  -0.368387  -0.105464  -0.022867
     5  C   -0.704231   0.045928  -0.072806   0.075430   0.013896   0.092505
     6  C   -0.617748  -0.222735  -0.021607  -0.047583  -0.006945  -0.524520
     7  C    7.375203  -0.062046   0.022386  -0.000078   0.006127   0.219409
     8  O   -0.062046   9.361360  -0.111429   0.000684   0.000038   0.051977
     9  O    0.022386  -0.111429   8.641470   0.000607   0.000542   0.004790
    10  O   -0.000078   0.000684   0.000607   9.232728   0.086283  -0.000546
    11  C    0.006127   0.000038   0.000542   0.086283   6.006354   0.002368
    12  H    0.219409   0.051977   0.004790  -0.000546   0.002368   1.291249
    13  H   -0.028074  -0.010331  -0.001311   0.000605  -0.013288  -0.195570
    14  H   -0.047440   0.000634  -0.004711  -0.033750  -0.154588  -0.008775
    15  H    0.072322   0.007129  -0.022396  -0.005566   0.004434   0.011970
    16  H    0.076514  -0.102054   0.153456  -0.000040   0.000006  -0.004283
    17  H    0.000088  -0.000007   0.000019  -0.032200   0.386491   0.000072
    18  H    0.000570   0.000009   0.000051  -0.007285   0.352151   0.000350
    19  H    0.000566   0.000009   0.000051  -0.007207   0.352092   0.000343
              13         14         15         16         17         18
     1  C   -0.574684  -0.058259   0.142783  -0.022225   0.006023  -0.000056
     2  C    0.723332   0.012090  -0.031210   0.003851  -0.006644   0.003677
     3  C   -0.359997  -0.662478   0.188150  -0.000425   0.008351   0.006818
     4  C    0.055929   0.948615  -0.807278   0.000687  -0.002470  -0.023753
     5  C   -0.007494  -0.972254   0.923677  -0.012495   0.003553   0.008914
     6  C    0.067659   0.209092  -0.653117   0.025511  -0.002201  -0.002951
     7  C   -0.028074  -0.047440   0.072322   0.076514   0.000088   0.000570
     8  O   -0.010331   0.000634   0.007129  -0.102054  -0.000007   0.000009
     9  O   -0.001311  -0.004711  -0.022396   0.153456   0.000019   0.000051
    10  O    0.000605  -0.033750  -0.005566  -0.000040  -0.032200  -0.007285
    11  C   -0.013288  -0.154588   0.004434   0.000006   0.386491   0.352151
    12  H   -0.195570  -0.008775   0.011970  -0.004283   0.000072   0.000350
    13  H    1.027080   0.009023  -0.006219   0.000328  -0.001466  -0.000617
    14  H    0.009023   1.896936  -0.288581   0.000051  -0.006668  -0.038472
    15  H   -0.006219  -0.288581   1.530747  -0.008027   0.001103   0.000499
    16  H    0.000328   0.000051  -0.008027   0.598139  -0.000004   0.000005
    17  H   -0.001466  -0.006668   0.001103  -0.000004   0.378225  -0.015452
    18  H   -0.000617  -0.038472   0.000499   0.000005  -0.015452   0.355224
    19  H   -0.000593  -0.038408   0.000492   0.000005  -0.015466   0.005864
              19
     1  C   -0.000075
     2  C    0.003719
     3  C    0.006800
     4  C   -0.023721
     5  C    0.008895
     6  C   -0.002935
     7  C    0.000566
     8  O    0.000009
     9  O    0.000051
    10  O   -0.007207
    11  C    0.352092
    12  H    0.000343
    13  H   -0.000593
    14  H   -0.038408
    15  H    0.000492
    16  H    0.000005
    17  H   -0.015466
    18  H    0.005864
    19  H    0.355148
 Mulliken charges:
               1
     1  C   -1.036981
     2  C   -0.157021
     3  C    0.970000
     4  C    0.162118
     5  C   -0.870179
     6  C    2.401761
     7  C    0.034089
     8  O   -0.927005
     9  O   -0.591613
    10  O   -0.738621
    11  C   -1.004178
    12  H   -0.033620
    13  H    0.315688
    14  H    0.237944
    15  H   -0.060912
    16  H    0.290999
    17  H    0.298654
    18  H    0.354456
    19  H    0.354420
 Sum of Mulliken charges =   0.00000
 Mulliken charges with hydrogens summed into heavy atoms:
               1
     1  C   -1.070601
     2  C    0.158667
     3  C    0.970000
     4  C    0.400062
     5  C   -0.931091
     6  C    2.401761
     7  C    0.034089
     8  O   -0.927005
     9  O   -0.300614
    10  O   -0.738621
    11  C    0.003353
 Electronic spatial extent (au):  <R**2>=           2087.5100
 Charge=              0.0000 electrons
 Dipole moment (field-independent basis, Debye):
    X=             -3.0224    Y=             -2.2439    Z=              0.0007  Tot=              3.7643
 Quadrupole moment (field-independent basis, Debye-Ang):
   XX=            -58.8998   YY=            -61.9086   ZZ=            -65.3174
   XY=             -1.4863   XZ=             -0.0031   YZ=              0.0002
 Traceless Quadrupole moment (field-independent basis, Debye-Ang):
   XX=              3.1421   YY=              0.1333   ZZ=             -3.2755
   XY=             -1.4863   XZ=             -0.0031   YZ=              0.0002
 Octapole moment (field-independent basis, Debye-Ang**2):
  XXX=            -17.4219  YYY=              3.8594  ZZZ=              0.0026  XYY=             -5.8816
  XXY=            -45.6502  XXZ=              0.0105  XZZ=              3.4961  YZZ=             -1.2007
  YYZ=             -0.0008  XYZ=             -0.0021
 Hexadecapole moment (field-independent basis, Debye-Ang**3):
 XXXX=          -1836.6269 YYYY=           -403.0477 ZZZZ=            -74.4037 XXXY=            -91.4722
 XXXZ=             -0.0367 YYYX=             -9.6263 YYYZ=              0.0055 ZZZX=             -0.0001
 ZZZY=             -0.0027 XXYY=           -447.1193 XXZZ=           -370.3864 YYZZ=            -89.4758
 XXYZ=             -0.0037 YYXZ=              0.0031 ZZXY=             -0.2647
 N-N= 5.871219453282D+02 E-N=-2.425458062964D+03  KE= 5.333568015609D+02
 ******************************Gaussian NBO Version 3.1******************************
             N A T U R A L   A T O M I C   O R B I T A L   A N D
          N A T U R A L   B O N D   O R B I T A L   A N A L Y S I S
 ******************************Gaussian NBO Version 3.1******************************
       /RESON  / : Allow strongly delocalized NBO set

 Analyzing the SCF density

 Job title: 4-OMe_benzoic-acid                                              

 Storage needed:   1431180 in NPA,   1906877 in NBO (********** available)
 GSVD:  LWork=       24858 too small for GESVD, short by      873369 words or      873369 for optimal perf.
 Remove ICRem=  192 ICRemI=  193 L=1 PNAO number  200 atom    5 type 153 NPNAO=  690
   due to symmetric orthogonalization 2, value= 0.00D+00.
 Remove ICRem=  192 ICRemI=  193 L=1 PNAO number  196 atom    5 type 152 NPNAO=  689
   due to symmetric orthogonalization 2, value= 0.00D+00.
 Remove ICRem=  192 ICRemI=  193 L=1 PNAO number  192 atom    5 type 151 NPNAO=  688
   due to symmetric orthogonalization 2, value= 0.00D+00.
 GSVD:  LWork=       30540 too small for GESVD, short by      856350 words or      856350 for optimal perf.

 Computed number of electrons   79.99995093 does not match expected value of    80.


 NATURAL POPULATIONS:  Natural atomic orbital occupancies 
                                                          
   NAO  Atom  No  lang   Type(AO)    Occupancy      Energy
 ----------------------------------------------------------
     1    C    1  S      Cor( 1S)     1.99908     -10.38444
     2    C    1  S      Val( 2S)     0.94038      -0.17458
     3    C    1  S      Ryd( 3S)     0.00138       1.94914
     4    C    1  S      Ryd( 5S)     0.00010       2.34896
     5    C    1  S      Ryd( 4S)     0.00003       2.29401
     6    C    1  px     Val( 2p)     1.08367      -0.06485
     7    C    1  px     Ryd( 4p)     0.00414       1.95869
     8    C    1  px     Ryd( 5p)     0.00012       2.71060
     9    C    1  px     Ryd( 3p)     0.00008       1.02822
    10    C    1  py     Val( 2p)     1.13249      -0.06537
    11    C    1  py     Ryd( 4p)     0.00460       1.88313
    12    C    1  py     Ryd( 5p)     0.00006       2.45043
    13    C    1  py     Ryd( 3p)     0.00004       1.20058
    14    C    1  pz     Val( 2p)     0.93197      -0.11743
    15    C    1  pz     Ryd( 4p)     0.00050       1.05011
    16    C    1  pz     Ryd( 5p)     0.00009       1.74792
    17    C    1  pz     Ryd( 3p)     0.00005       0.62854
    18    C    1  dxy    Ryd( 3d)     0.00174       2.72922
    19    C    1  dxy    Ryd( 5d)     0.00008       4.08063
    20    C    1  dxy    Ryd( 4d)     0.00007       3.18443
    21    C    1  dxz    Ryd( 3d)     0.00065       1.63551
    22    C    1  dxz    Ryd( 5d)     0.00004       3.23466
    23    C    1  dxz    Ryd( 4d)     0.00005       1.83018
    24    C    1  dyz    Ryd( 3d)     0.00051       1.35682
    25    C    1  dyz    Ryd( 5d)     0.00005       3.26523
    26    C    1  dyz    Ryd( 4d)     0.00003       1.61564
    27    C    1  dx2y2  Ryd( 4d)     0.00209       3.78509
    28    C    1  dx2y2  Ryd( 5d)     0.00026       4.47573
    29    C    1  dx2y2  Ryd( 3d)     0.00007       2.47699
    30    C    1  dz2    Ryd( 3d)     0.00089       2.02632
    31    C    1  dz2    Ryd( 5d)     0.00011       4.03419
    32    C    1  dz2    Ryd( 4d)     0.00008       3.90128
    33    C    1  f(0)   Ryd( 4f)     0.00006       1.52321
    34    C    1  f(0)   Ryd( 5f)     0.00012       3.44312
    35    C    1  f(C1)  Ryd( 4f)     0.00043       2.02732
    36    C    1  f(C1)  Ryd( 5f)     0.00026       3.62991
    37    C    1  f(S1)  Ryd( 4f)     0.00055       1.95295
    38    C    1  f(S1)  Ryd( 5f)     0.00018       3.52405
    39    C    1  f(C2)  Ryd( 4f)     0.00031       1.56323
    40    C    1  f(C2)  Ryd( 5f)     0.00003       3.49263
    41    C    1  f(S2)  Ryd( 4f)     0.00011       1.57794
    42    C    1  f(S2)  Ryd( 5f)     0.00003       3.44823
    43    C    1  f(C3)  Ryd( 4f)     0.00032       3.66997
    44    C    1  f(C3)  Ryd( 5f)     0.00013       4.09574
    45    C    1  f(S3)  Ryd( 4f)     0.00114       2.00250
    46    C    1  f(S3)  Ryd( 5f)     0.00027       4.43767
 
    47    C    2  S      Cor( 1S)     1.99904     -10.37777
    48    C    2  S      Val( 2S)     0.94666      -0.18373
    49    C    2  S      Ryd( 3S)     0.00138       1.85259
    50    C    2  S      Ryd( 5S)     0.00012       2.80730
    51    C    2  S      Ryd( 4S)     0.00002       2.12183
    52    C    2  px     Val( 2p)     1.09486      -0.07678
    53    C    2  px     Ryd( 4p)     0.00431       1.91244
    54    C    2  px     Ryd( 5p)     0.00017       2.26594
    55    C    2  px     Ryd( 3p)     0.00003       1.32708
    56    C    2  py     Val( 2p)     1.15198      -0.08951
    57    C    2  py     Ryd( 4p)     0.00428       1.81478
    58    C    2  py     Ryd( 5p)     0.00009       2.21493
    59    C    2  py     Ryd( 3p)     0.00004       1.26224
    60    C    2  pz     Val( 2p)     1.03149      -0.12729
    61    C    2  pz     Ryd( 4p)     0.00077       1.01161
    62    C    2  pz     Ryd( 5p)     0.00007       1.48113
    63    C    2  pz     Ryd( 3p)     0.00007       0.86302
    64    C    2  dxy    Ryd( 3d)     0.00284       2.82925
    65    C    2  dxy    Ryd( 5d)     0.00016       4.06257
    66    C    2  dxy    Ryd( 4d)     0.00007       2.85695
    67    C    2  dxz    Ryd( 3d)     0.00040       1.52734
    68    C    2  dxz    Ryd( 5d)     0.00005       3.22379
    69    C    2  dxz    Ryd( 4d)     0.00003       1.78161
    70    C    2  dyz    Ryd( 3d)     0.00048       1.36223
    71    C    2  dyz    Ryd( 5d)     0.00003       3.32709
    72    C    2  dyz    Ryd( 4d)     0.00011       1.52675
    73    C    2  dx2y2  Ryd( 4d)     0.00199       2.87054
    74    C    2  dx2y2  Ryd( 5d)     0.00021       4.17462
    75    C    2  dx2y2  Ryd( 3d)     0.00009       2.37414
    76    C    2  dz2    Ryd( 3d)     0.00142       1.76054
    77    C    2  dz2    Ryd( 5d)     0.00015       4.14973
    78    C    2  dz2    Ryd( 4d)     0.00006       3.71444
    79    C    2  f(0)   Ryd( 4f)     0.00037       1.80995
    80    C    2  f(0)   Ryd( 5f)     0.00010       3.13852
    81    C    2  f(C1)  Ryd( 4f)     0.00065       2.37781
    82    C    2  f(C1)  Ryd( 5f)     0.00016       3.33997
    83    C    2  f(S1)  Ryd( 4f)     0.00057       2.15453
    84    C    2  f(S1)  Ryd( 5f)     0.00011       3.20178
    85    C    2  f(C2)  Ryd( 4f)     0.00011       1.93837
    86    C    2  f(C2)  Ryd( 5f)     0.00005       3.03890
    87    C    2  f(S2)  Ryd( 4f)     0.00009       1.90147
    88    C    2  f(S2)  Ryd( 5f)     0.00008       3.07370
    89    C    2  f(C3)  Ryd( 4f)     0.00062       3.40495
    90    C    2  f(C3)  Ryd( 5f)     0.00015       4.06915
    91    C    2  f(S3)  Ryd( 4f)     0.00065       2.40446
    92    C    2  f(S3)  Ryd( 5f)     0.00043       3.78099
 
    93    C    3  S      Cor( 1S)     1.99852     -10.46152
    94    C    3  S      Val( 2S)     0.83228      -0.12525
    95    C    3  S      Ryd( 3S)     0.00121       2.10830
    96    C    3  S      Ryd( 4S)     0.00010       2.33739
    97    C    3  S      Ryd( 5S)     0.00002       2.57085
    98    C    3  px     Val( 2p)     0.78694      -0.04172
    99    C    3  px     Ryd( 4p)     0.00528       1.74447
   100    C    3  px     Ryd( 5p)     0.00006       1.88189
   101    C    3  px     Ryd( 3p)     0.00003       1.67491
   102    C    3  py     Val( 2p)     1.08550      -0.08404
   103    C    3  py     Ryd( 5p)     0.00448       1.85394
   104    C    3  py     Ryd( 3p)     0.00012       1.29555
   105    C    3  py     Ryd( 4p)     0.00003       1.49111
   106    C    3  pz     Val( 2p)     0.93460      -0.13130
   107    C    3  pz     Ryd( 3p)     0.00060       0.96284
   108    C    3  pz     Ryd( 4p)     0.00016       1.10879
   109    C    3  pz     Ryd( 5p)     0.00005       1.11705
   110    C    3  dxy    Ryd( 3d)     0.00203       3.24781
   111    C    3  dxy    Ryd( 4d)     0.00020       3.49362
   112    C    3  dxy    Ryd( 5d)     0.00008       4.74746
   113    C    3  dxz    Ryd( 3d)     0.00245       1.46527
   114    C    3  dxz    Ryd( 4d)     0.00003       2.52080
   115    C    3  dxz    Ryd( 5d)     0.00006       2.61324
   116    C    3  dyz    Ryd( 3d)     0.00125       1.67488
   117    C    3  dyz    Ryd( 4d)     0.00010       2.48732
   118    C    3  dyz    Ryd( 5d)     0.00002       2.70817
   119    C    3  dx2y2  Ryd( 3d)     0.00054       3.07139
   120    C    3  dx2y2  Ryd( 4d)     0.00027       3.59255
   121    C    3  dx2y2  Ryd( 5d)     0.00005       3.82512
   122    C    3  dz2    Ryd( 3d)     0.00062       2.12564
   123    C    3  dz2    Ryd( 5d)     0.00037       3.91876
   124    C    3  dz2    Ryd( 4d)     0.00007       3.49030
   125    C    3  f(0)   Ryd( 4f)     0.00001       1.50119
   126    C    3  f(0)   Ryd( 5f)     0.00019       3.69207
   127    C    3  f(C1)  Ryd( 4f)     0.00067       1.75255
   128    C    3  f(C1)  Ryd( 5f)     0.00022       3.80503
   129    C    3  f(S1)  Ryd( 4f)     0.00038       1.77175
   130    C    3  f(S1)  Ryd( 5f)     0.00026       3.82977
   131    C    3  f(C2)  Ryd( 4f)     0.00043       1.38833
   132    C    3  f(C2)  Ryd( 5f)     0.00005       3.77881
   133    C    3  f(S2)  Ryd( 4f)     0.00041       1.39666
   134    C    3  f(S2)  Ryd( 5f)     0.00001       3.76083
   135    C    3  f(C3)  Ryd( 4f)     0.00055       3.00438
   136    C    3  f(C3)  Ryd( 5f)     0.00007       4.52234
   137    C    3  f(S3)  Ryd( 4f)     0.00204       2.26804
   138    C    3  f(S3)  Ryd( 5f)     0.00010       4.92336
 
   139    C    4  S      Cor( 1S)     1.99904     -10.38107
   140    C    4  S      Val( 2S)     0.94575      -0.18328
   141    C    4  S      Ryd( 3S)     0.00235       1.58256
   142    C    4  S      Ryd( 5S)     0.00014       2.54000
   143    C    4  S      Ryd( 4S)     0.00003       2.41372
   144    C    4  px     Val( 2p)     1.12090      -0.09242
   145    C    4  px     Ryd( 4p)     0.00321       1.79665
   146    C    4  px     Ryd( 3p)     0.00016       1.12976
   147    C    4  px     Ryd( 5p)     0.00008       2.99253
   148    C    4  py     Val( 2p)     1.14731      -0.09045
   149    C    4  py     Ryd( 3p)     0.00562       1.50538
   150    C    4  py     Ryd( 4p)     0.00016       1.62869
   151    C    4  py     Ryd( 5p)     0.00005       2.45527
   152    C    4  pz     Val( 2p)     1.07056      -0.13850
   153    C    4  pz     Ryd( 3p)     0.00140       0.80453
   154    C    4  pz     Ryd( 4p)     0.00050       1.54015
   155    C    4  pz     Ryd( 5p)     0.00010       1.73268
   156    C    4  dxy    Ryd( 3d)     0.00181       2.48181
   157    C    4  dxy    Ryd( 5d)     0.00014       3.93691
   158    C    4  dxy    Ryd( 4d)     0.00006       3.27895
   159    C    4  dxz    Ryd( 3d)     0.00020       1.46673
   160    C    4  dxz    Ryd( 5d)     0.00018       2.93734
   161    C    4  dxz    Ryd( 4d)     0.00007       2.01276
   162    C    4  dyz    Ryd( 3d)     0.00058       1.39236
   163    C    4  dyz    Ryd( 5d)     0.00005       3.12247
   164    C    4  dyz    Ryd( 4d)     0.00005       1.70948
   165    C    4  dx2y2  Ryd( 4d)     0.00176       3.35604
   166    C    4  dx2y2  Ryd( 5d)     0.00027       3.92315
   167    C    4  dx2y2  Ryd( 3d)     0.00006       2.75561
   168    C    4  dz2    Ryd( 3d)     0.00109       1.65872
   169    C    4  dz2    Ryd( 5d)     0.00019       4.39348
   170    C    4  dz2    Ryd( 4d)     0.00005       3.69130
   171    C    4  f(0)   Ryd( 4f)     0.00039       1.73391
   172    C    4  f(0)   Ryd( 5f)     0.00013       3.19501
   173    C    4  f(C1)  Ryd( 4f)     0.00085       2.31087
   174    C    4  f(C1)  Ryd( 5f)     0.00011       3.32427
   175    C    4  f(S1)  Ryd( 4f)     0.00069       2.18719
   176    C    4  f(S1)  Ryd( 5f)     0.00013       3.25811
   177    C    4  f(C2)  Ryd( 4f)     0.00009       1.83515
   178    C    4  f(C2)  Ryd( 5f)     0.00004       3.13355
   179    C    4  f(S2)  Ryd( 4f)     0.00018       1.87153
   180    C    4  f(S2)  Ryd( 5f)     0.00011       3.09694
   181    C    4  f(C3)  Ryd( 4f)     0.00044       3.48454
   182    C    4  f(C3)  Ryd( 5f)     0.00020       4.19464
   183    C    4  f(S3)  Ryd( 4f)     0.00067       2.28687
   184    C    4  f(S3)  Ryd( 5f)     0.00025       3.80248
 
   185    C    5  S      Cor( 1S)     1.99910     -10.38677
   186    C    5  S      Val( 2S)     0.93650      -0.17823
   187    C    5  S      Ryd( 3S)     0.00116       1.96108
   188    C    5  S      Ryd( 4S)     0.00015       2.03584
   189    C    5  S      Ryd( 5S)     0.00004       2.72268
   190    C    5  px     Val( 2p)     1.05536      -0.06941
   191    C    5  px     Ryd( 3p)     0.00238       1.85682
   192    C    5  px     Ryd( 4p)     0.00006       2.28547
   193    C    5  py     Val( 2p)     1.13936      -0.07434
   194    C    5  py     Ryd( 3p)     0.00401       1.66100
   195    C    5  py     Ryd( 4p)     0.00006       2.11098
   196    C    5  pz     Val( 2p)     0.93175      -0.12468
   197    C    5  pz     Ryd( 3p)     0.00072       1.04101
   198    C    5  pz     Ryd( 4p)     0.00008       1.40867
   199    C    5  dxy    Ryd( 4d)     0.00177       3.11817
   200    C    5  dxy    Ryd( 5d)     0.00021       4.00645
   201    C    5  dxy    Ryd( 3d)     0.00005       3.03840
   202    C    5  dxz    Ryd( 3d)     0.00075       1.54821
   203    C    5  dxz    Ryd( 5d)     0.00005       3.08426
   204    C    5  dxz    Ryd( 4d)     0.00009       2.01196
   205    C    5  dyz    Ryd( 3d)     0.00098       1.27901
   206    C    5  dyz    Ryd( 5d)     0.00005       3.14085
   207    C    5  dyz    Ryd( 4d)     0.00004       1.74933
   208    C    5  dx2y2  Ryd( 4d)     0.00186       3.24451
   209    C    5  dx2y2  Ryd( 5d)     0.00023       4.17141
   210    C    5  dx2y2  Ryd( 3d)     0.00007       3.01168
   211    C    5  dz2    Ryd( 3d)     0.00108       1.81227
   212    C    5  dz2    Ryd( 5d)     0.00013       4.10025
   213    C    5  dz2    Ryd( 4d)     0.00008       3.99397
   214    C    5  f(0)   Ryd( 4f)     0.00045       1.53514
   215    C    5  f(0)   Ryd( 5f)     0.00006       3.40351
   216    C    5  f(C1)  Ryd( 4f)     0.00082       2.08717
   217    C    5  f(C1)  Ryd( 5f)     0.00016       3.63435
   218    C    5  f(S1)  Ryd( 4f)     0.00108       1.93358
   219    C    5  f(S1)  Ryd( 5f)     0.00009       3.48576
   220    C    5  f(C2)  Ryd( 4f)     0.00041       1.53635
   221    C    5  f(C2)  Ryd( 5f)     0.00004       3.46846
   222    C    5  f(S2)  Ryd( 4f)     0.00019       1.56096
   223    C    5  f(S2)  Ryd( 5f)     0.00001       3.41262
   224    C    5  f(C3)  Ryd( 4f)     0.00044       3.49048
   225    C    5  f(C3)  Ryd( 5f)     0.00014       4.10931
   226    C    5  f(S3)  Ryd( 4f)     0.00130       1.92377
   227    C    5  f(S3)  Ryd( 5f)     0.00025       4.42242
 
   228    C    6  S      Cor( 1S)     1.99885     -10.36185
   229    C    6  S      Val( 2S)     0.88508      -0.10376
   230    C    6  S      Ryd( 3S)     0.00161       1.91341
   231    C    6  S      Ryd( 4S)     0.00013       2.34914
   232    C    6  S      Ryd( 5S)     0.00003       4.14862
   233    C    6  px     Val( 2p)     1.10589      -0.10499
   234    C    6  px     Ryd( 4p)     0.00637       2.33502
   235    C    6  px     Ryd( 3p)     0.00016       0.97256
   236    C    6  px     Ryd( 5p)     0.00006       2.65792
   237    C    6  py     Val( 2p)     1.14529      -0.10702
   238    C    6  py     Ryd( 4p)     0.00561       1.97392
   239    C    6  py     Ryd( 3p)     0.00016       1.09146
   240    C    6  py     Ryd( 5p)     0.00010       2.33943
   241    C    6  pz     Val( 2p)     1.09726      -0.13346
   242    C    6  pz     Ryd( 3p)     0.00179       0.88760
   243    C    6  pz     Ryd( 4p)     0.00030       1.02163
   244    C    6  pz     Ryd( 5p)     0.00013       2.08744
   245    C    6  dxy    Ryd( 3d)     0.00082       2.76153
   246    C    6  dxy    Ryd( 4d)     0.00035       3.89621
   247    C    6  dxy    Ryd( 5d)     0.00008       5.86280
   248    C    6  dxz    Ryd( 3d)     0.00062       1.23814
   249    C    6  dxz    Ryd( 5d)     0.00025       3.21095
   250    C    6  dxz    Ryd( 4d)     0.00014       2.30998
   251    C    6  dyz    Ryd( 3d)     0.00030       1.04576
   252    C    6  dyz    Ryd( 5d)     0.00018       3.15454
   253    C    6  dyz    Ryd( 4d)     0.00003       2.74177
   254    C    6  dx2y2  Ryd( 3d)     0.00244       2.60385
   255    C    6  dx2y2  Ryd( 4d)     0.00042       4.11045
   256    C    6  dx2y2  Ryd( 5d)     0.00002       4.89376
   257    C    6  dz2    Ryd( 3d)     0.00125       1.27213
   258    C    6  dz2    Ryd( 5d)     0.00020       4.58580
   259    C    6  dz2    Ryd( 4d)     0.00005       3.89774
   260    C    6  f(0)   Ryd( 4f)     0.00038       1.59309
   261    C    6  f(0)   Ryd( 5f)     0.00026       3.46045
   262    C    6  f(C1)  Ryd( 4f)     0.00049       2.07781
   263    C    6  f(C1)  Ryd( 5f)     0.00053       3.62357
   264    C    6  f(S1)  Ryd( 4f)     0.00094       1.94378
   265    C    6  f(S1)  Ryd( 5f)     0.00029       3.59736
   266    C    6  f(C2)  Ryd( 4f)     0.00070       1.62264
   267    C    6  f(C2)  Ryd( 5f)     0.00005       3.37698
   268    C    6  f(S2)  Ryd( 4f)     0.00080       1.51855
   269    C    6  f(S2)  Ryd( 5f)     0.00006       3.46004
   270    C    6  f(C3)  Ryd( 4f)     0.00124       3.11722
   271    C    6  f(C3)  Ryd( 5f)     0.00013       4.57483
   272    C    6  f(S3)  Ryd( 4f)     0.00216       2.56628
   273    C    6  f(S3)  Ryd( 5f)     0.00025       4.35666
 
   274    C    7  S      Cor( 1S)     1.99907     -10.52703
   275    C    7  S      Val( 2S)     0.77847      -0.09093
   276    C    7  S      Ryd( 3S)     0.00379       2.04145
   277    C    7  S      Ryd( 4S)     0.00021       2.13268
   278    C    7  S      Ryd( 5S)     0.00007       2.40713
   279    C    7  px     Val( 2p)     0.91876      -0.03572
   280    C    7  px     Ryd( 5p)     0.00677       1.60985
   281    C    7  px     Ryd( 3p)     0.00025       0.93375
   282    C    7  px     Ryd( 4p)     0.00002       1.58759
   283    C    7  py     Val( 2p)     0.72212      -0.01692
   284    C    7  py     Ryd( 4p)     0.01246       1.59174
   285    C    7  py     Ryd( 3p)     0.00013       0.94972
   286    C    7  py     Ryd( 5p)     0.00009       2.37981
   287    C    7  pz     Val( 2p)     0.75549      -0.11630
   288    C    7  pz     Ryd( 4p)     0.00054       1.12984
   289    C    7  pz     Ryd( 3p)     0.00012       0.60790
   290    C    7  pz     Ryd( 5p)     0.00002       1.27051
   291    C    7  dxy    Ryd( 5d)     0.00056       4.21306
   292    C    7  dxy    Ryd( 3d)     0.00005       3.22925
   293    C    7  dxy    Ryd( 4d)     0.00005       3.82096
   294    C    7  dxz    Ryd( 5d)     0.00067       3.29855
   295    C    7  dxz    Ryd( 4d)     0.00008       2.01742
   296    C    7  dxz    Ryd( 3d)     0.00009       1.81372
   297    C    7  dyz    Ryd( 5d)     0.00129       3.35025
   298    C    7  dyz    Ryd( 4d)     0.00003       2.19489
   299    C    7  dyz    Ryd( 3d)     0.00001       2.04469
   300    C    7  dx2y2  Ryd( 5d)     0.00164       4.30094
   301    C    7  dx2y2  Ryd( 4d)     0.00006       3.29493
   302    C    7  dx2y2  Ryd( 3d)     0.00004       2.50700
   303    C    7  dz2    Ryd( 5d)     0.00017       4.40502
   304    C    7  dz2    Ryd( 4d)     0.00017       3.56749
   305    C    7  dz2    Ryd( 3d)     0.00008       3.21850
   306    C    7  f(0)   Ryd( 5f)     0.00011       3.35721
   307    C    7  f(0)   Ryd( 4f)     0.00003       2.64306
   308    C    7  f(C1)  Ryd( 5f)     0.00018       3.71867
   309    C    7  f(C1)  Ryd( 4f)     0.00001       3.44800
   310    C    7  f(S1)  Ryd( 5f)     0.00007       3.56820
   311    C    7  f(S1)  Ryd( 4f)     0.00004       3.39941
   312    C    7  f(C2)  Ryd( 5f)     0.00002       3.27947
   313    C    7  f(C2)  Ryd( 4f)     0.00010       2.81582
   314    C    7  f(S2)  Ryd( 5f)     0.00002       3.52583
   315    C    7  f(S2)  Ryd( 4f)     0.00001       2.99466
   316    C    7  f(C3)  Ryd( 4f)     0.00005       4.64127
   317    C    7  f(C3)  Ryd( 5f)     0.00003       8.19051
   318    C    7  f(S3)  Ryd( 4f)     0.00010       4.42198
   319    C    7  f(S3)  Ryd( 5f)     0.00003       4.48650
 
   320    O    8  S      Cor( 1S)     1.99979     -19.31549
   321    O    8  S      Val( 2S)     1.70540      -0.99069
   322    O    8  S      Ryd( 4S)     0.00055       2.93724
   323    O    8  S      Ryd( 3S)     0.00022       1.48497
   324    O    8  S      Ryd( 5S)     0.00001       8.72553
   325    O    8  px     Val( 2p)     1.73689      -0.32875
   326    O    8  px     Ryd( 4p)     0.00099       1.26065
   327    O    8  px     Ryd( 3p)     0.00007       0.59642
   328    O    8  px     Ryd( 5p)     0.00004       5.03992
   329    O    8  py     Val( 2p)     1.68155      -0.33034
   330    O    8  py     Ryd( 4p)     0.00153       1.26733
   331    O    8  py     Ryd( 3p)     0.00017       0.58609
   332    O    8  py     Ryd( 5p)     0.00004       5.37338
   333    O    8  pz     Val( 2p)     1.46598      -0.28163
   334    O    8  pz     Ryd( 4p)     0.00089       0.87179
   335    O    8  pz     Ryd( 3p)     0.00006       0.48159
   336    O    8  pz     Ryd( 5p)     0.00000       4.22971
   337    O    8  dxy    Ryd( 3d)     0.00813       2.06236
   338    O    8  dxy    Ryd( 4d)     0.00014       3.18598
   339    O    8  dxy    Ryd( 5d)     0.00002       6.66836
   340    O    8  dxz    Ryd( 3d)     0.00272       1.45386
   341    O    8  dxz    Ryd( 4d)     0.00001       1.66929
   342    O    8  dxz    Ryd( 5d)     0.00001       6.49614
   343    O    8  dyz    Ryd( 3d)     0.00438       1.50316
   344    O    8  dyz    Ryd( 4d)     0.00004       1.68690
   345    O    8  dyz    Ryd( 5d)     0.00003       6.46813
   346    O    8  dx2y2  Ryd( 3d)     0.00546       1.83237
   347    O    8  dx2y2  Ryd( 4d)     0.00005       2.01227
   348    O    8  dx2y2  Ryd( 5d)     0.00005       6.52266
   349    O    8  dz2    Ryd( 3d)     0.00277       1.64042
   350    O    8  dz2    Ryd( 4d)     0.00010       2.49869
   351    O    8  dz2    Ryd( 5d)     0.00001       6.59491
   352    O    8  f(0)   Ryd( 4f)     0.00013       3.15026
   353    O    8  f(0)   Ryd( 5f)     0.00000       5.50656
   354    O    8  f(C1)  Ryd( 4f)     0.00009       3.37967
   355    O    8  f(C1)  Ryd( 5f)     0.00001       5.63855
   356    O    8  f(S1)  Ryd( 4f)     0.00009       3.46842
   357    O    8  f(S1)  Ryd( 5f)     0.00001       5.72071
   358    O    8  f(C2)  Ryd( 4f)     0.00006       3.09217
   359    O    8  f(C2)  Ryd( 5f)     0.00002       5.72549
   360    O    8  f(S2)  Ryd( 4f)     0.00033       3.22672
   361    O    8  f(S2)  Ryd( 5f)     0.00001       5.58251
   362    O    8  f(C3)  Ryd( 4f)     0.00034       3.88364
   363    O    8  f(C3)  Ryd( 5f)     0.00001       6.04750
   364    O    8  f(S3)  Ryd( 4f)     0.00047       3.68291
   365    O    8  f(S3)  Ryd( 5f)     0.00002       5.97633
 
   366    O    9  S      Cor( 1S)     1.99978     -19.44947
   367    O    9  S      Val( 2S)     1.67667      -1.02646
   368    O    9  S      Ryd( 3S)     0.00042       1.65029
   369    O    9  S      Ryd( 4S)     0.00012       1.95395
   370    O    9  S      Ryd( 5S)     0.00001      10.06911
   371    O    9  px     Val( 2p)     1.50026      -0.35560
   372    O    9  px     Ryd( 4p)     0.00069       1.13360
   373    O    9  px     Ryd( 3p)     0.00011       0.68942
   374    O    9  px     Ryd( 5p)     0.00005       5.22960
   375    O    9  py     Val( 2p)     1.66093      -0.39052
   376    O    9  py     Ryd( 4p)     0.00084       1.00832
   377    O    9  py     Ryd( 3p)     0.00010       0.55600
   378    O    9  py     Ryd( 5p)     0.00007       5.13285
   379    O    9  pz     Val( 2p)     1.84899      -0.40500
   380    O    9  pz     Ryd( 4p)     0.00124       0.76781
   381    O    9  pz     Ryd( 3p)     0.00002       0.54010
   382    O    9  pz     Ryd( 5p)     0.00001       4.15594
   383    O    9  dxy    Ryd( 3d)     0.00519       1.87335
   384    O    9  dxy    Ryd( 4d)     0.00015       2.46694
   385    O    9  dxy    Ryd( 5d)     0.00003       6.74375
   386    O    9  dxz    Ryd( 3d)     0.00070       1.13213
   387    O    9  dxz    Ryd( 4d)     0.00006       1.92722
   388    O    9  dxz    Ryd( 5d)     0.00001       6.50580
   389    O    9  dyz    Ryd( 3d)     0.00452       1.32031
   390    O    9  dyz    Ryd( 4d)     0.00003       1.70529
   391    O    9  dyz    Ryd( 5d)     0.00004       6.52181
   392    O    9  dx2y2  Ryd( 3d)     0.00490       1.85833
   393    O    9  dx2y2  Ryd( 4d)     0.00008       2.12605
   394    O    9  dx2y2  Ryd( 5d)     0.00006       6.94926
   395    O    9  dz2    Ryd( 3d)     0.00300       1.50025
   396    O    9  dz2    Ryd( 4d)     0.00014       2.33982
   397    O    9  dz2    Ryd( 5d)     0.00001       6.74414
   398    O    9  f(0)   Ryd( 4f)     0.00054       2.77184
   399    O    9  f(0)   Ryd( 5f)     0.00001       5.94543
   400    O    9  f(C1)  Ryd( 4f)     0.00025       3.32310
   401    O    9  f(C1)  Ryd( 5f)     0.00001       6.22310
   402    O    9  f(S1)  Ryd( 4f)     0.00016       3.33739
   403    O    9  f(S1)  Ryd( 5f)     0.00001       6.12255
   404    O    9  f(C2)  Ryd( 4f)     0.00004       2.86646
   405    O    9  f(C2)  Ryd( 5f)     0.00001       6.09795
   406    O    9  f(S2)  Ryd( 4f)     0.00011       2.81302
   407    O    9  f(S2)  Ryd( 5f)     0.00001       5.98229
   408    O    9  f(C3)  Ryd( 4f)     0.00012       4.50662
   409    O    9  f(C3)  Ryd( 5f)     0.00006       6.58029
   410    O    9  f(S3)  Ryd( 4f)     0.00005       3.66993
   411    O    9  f(S3)  Ryd( 5f)     0.00001       6.42124
 
   412    O   10  S      Cor( 1S)     1.99975     -19.47158
   413    O   10  S      Val( 2S)     1.58865      -0.96462
   414    O   10  S      Ryd( 4S)     0.00205       2.45394
   415    O   10  S      Ryd( 3S)     0.00020       1.65823
   416    O   10  S      Ryd( 5S)     0.00001      10.90676
   417    O   10  px     Val( 2p)     1.38370      -0.34328
   418    O   10  px     Ryd( 4p)     0.00185       1.73751
   419    O   10  px     Ryd( 3p)     0.00016       1.29647
   420    O   10  px     Ryd( 5p)     0.00003       5.05071
   421    O   10  py     Val( 2p)     1.66935      -0.39199
   422    O   10  py     Ryd( 3p)     0.00240       1.28642
   423    O   10  py     Ryd( 4p)     0.00015       1.35620
   424    O   10  py     Ryd( 5p)     0.00008       4.45353
   425    O   10  pz     Val( 2p)     1.85038      -0.40127
   426    O   10  pz     Ryd( 3p)     0.00357       0.96256
   427    O   10  pz     Ryd( 4p)     0.00005       1.20820
   428    O   10  pz     Ryd( 5p)     0.00001       3.71520
   429    O   10  dxy    Ryd( 3d)     0.00322       2.23711
   430    O   10  dxy    Ryd( 4d)     0.00015       2.98222
   431    O   10  dxy    Ryd( 5d)     0.00006       6.61815
   432    O   10  dxz    Ryd( 3d)     0.00042       1.50992
   433    O   10  dxz    Ryd( 4d)     0.00025       2.42718
   434    O   10  dxz    Ryd( 5d)     0.00005       6.25471
   435    O   10  dyz    Ryd( 3d)     0.00291       1.34203
   436    O   10  dyz    Ryd( 4d)     0.00008       2.36504
   437    O   10  dyz    Ryd( 5d)     0.00001       6.08693
   438    O   10  dx2y2  Ryd( 3d)     0.00369       2.20122
   439    O   10  dx2y2  Ryd( 4d)     0.00022       3.25938
   440    O   10  dx2y2  Ryd( 5d)     0.00005       6.49886
   441    O   10  dz2    Ryd( 3d)     0.00269       1.69147
   442    O   10  dz2    Ryd( 4d)     0.00012       2.65791
   443    O   10  dz2    Ryd( 5d)     0.00002       6.46085
   444    O   10  f(0)   Ryd( 4f)     0.00048       2.80862
   445    O   10  f(0)   Ryd( 5f)     0.00002       6.15217
   446    O   10  f(C1)  Ryd( 4f)     0.00013       4.28395
   447    O   10  f(C1)  Ryd( 5f)     0.00004       6.52128
   448    O   10  f(S1)  Ryd( 4f)     0.00013       3.41591
   449    O   10  f(S1)  Ryd( 5f)     0.00002       6.30322
   450    O   10  f(C2)  Ryd( 4f)     0.00003       2.90772
   451    O   10  f(C2)  Ryd( 5f)     0.00001       6.31089
   452    O   10  f(S2)  Ryd( 4f)     0.00009       2.92238
   453    O   10  f(S2)  Ryd( 5f)     0.00002       6.41807
   454    O   10  f(C3)  Ryd( 4f)     0.00009       4.97205
   455    O   10  f(C3)  Ryd( 5f)     0.00006       6.76221
   456    O   10  f(S3)  Ryd( 4f)     0.00006       3.81960
   457    O   10  f(S3)  Ryd( 5f)     0.00008       6.64645
 
   458    C   11  S      Cor( 1S)     1.99943     -10.48738
   459    C   11  S      Val( 2S)     1.09359      -0.33357
   460    C   11  S      Ryd( 3S)     0.00178       1.03316
   461    C   11  S      Ryd( 5S)     0.00018       3.87308
   462    C   11  S      Ryd( 4S)     0.00006       3.35112
   463    C   11  px     Val( 2p)     1.03301      -0.12512
   464    C   11  px     Ryd( 4p)     0.00185       1.19438
   465    C   11  px     Ryd( 5p)     0.00021       2.22150
   466    C   11  px     Ryd( 3p)     0.00004       0.93452
   467    C   11  py     Val( 2p)     0.90271      -0.10100
   468    C   11  py     Ryd( 4p)     0.00361       0.94615
   469    C   11  py     Ryd( 5p)     0.00013       2.18891
   470    C   11  py     Ryd( 3p)     0.00008       0.60610
   471    C   11  pz     Val( 2p)     1.18095      -0.14173
   472    C   11  pz     Ryd( 4p)     0.00030       1.04797
   473    C   11  pz     Ryd( 5p)     0.00020       1.95708
   474    C   11  pz     Ryd( 3p)     0.00001       0.58265
   475    C   11  dxy    Ryd( 5d)     0.00055       3.87376
   476    C   11  dxy    Ryd( 3d)     0.00015       1.21317
   477    C   11  dxy    Ryd( 4d)     0.00001       3.33623
   478    C   11  dxz    Ryd( 4d)     0.00024       3.12748
   479    C   11  dxz    Ryd( 3d)     0.00010       1.22937
   480    C   11  dxz    Ryd( 5d)     0.00005       3.13900
   481    C   11  dyz    Ryd( 5d)     0.00159       3.39167
   482    C   11  dyz    Ryd( 3d)     0.00024       1.22217
   483    C   11  dyz    Ryd( 4d)     0.00000       3.14406
   484    C   11  dx2y2  Ryd( 4d)     0.00075       3.28557
   485    C   11  dx2y2  Ryd( 3d)     0.00002       1.26825
   486    C   11  dx2y2  Ryd( 5d)     0.00003       3.57935
   487    C   11  dz2    Ryd( 5d)     0.00062       3.59047
   488    C   11  dz2    Ryd( 3d)     0.00014       1.25525
   489    C   11  dz2    Ryd( 4d)     0.00001       3.35311
   490    C   11  f(0)   Ryd( 4f)     0.00003       2.19108
   491    C   11  f(0)   Ryd( 5f)     0.00001       3.53975
   492    C   11  f(C1)  Ryd( 4f)     0.00010       2.82197
   493    C   11  f(C1)  Ryd( 5f)     0.00001       3.68386
   494    C   11  f(S1)  Ryd( 4f)     0.00016       2.83511
   495    C   11  f(S1)  Ryd( 5f)     0.00013       3.80103
   496    C   11  f(C2)  Ryd( 4f)     0.00007       2.58517
   497    C   11  f(C2)  Ryd( 5f)     0.00001       3.55764
   498    C   11  f(S2)  Ryd( 4f)     0.00013       2.27514
   499    C   11  f(S2)  Ryd( 5f)     0.00002       3.48335
   500    C   11  f(C3)  Ryd( 4f)     0.00005       2.72884
   501    C   11  f(C3)  Ryd( 5f)     0.00006       3.69310
   502    C   11  f(S3)  Ryd( 4f)     0.00013       2.61520
   503    C   11  f(S3)  Ryd( 5f)     0.00006       3.59536
 
   504    H   12  S      Val( 1S)     0.75803       0.05641
   505    H   12  S      Ryd( 4S)     0.00049       2.00299
   506    H   12  S      Ryd( 2S)     0.00016       0.66646
   507    H   12  S      Ryd( 3S)     0.00005       1.72582
   508    H   12  px     Ryd( 2p)     0.00071       0.98654
   509    H   12  px     Ryd( 4p)     0.00012       4.22507
   510    H   12  px     Ryd( 3p)     0.00006       3.60263
   511    H   12  py     Ryd( 2p)     0.00084       0.98212
   512    H   12  py     Ryd( 3p)     0.00016       4.21730
   513    H   12  py     Ryd( 4p)     0.00006       4.29254
   514    H   12  pz     Ryd( 2p)     0.00015       0.68299
   515    H   12  pz     Ryd( 4p)     0.00003       3.91997
   516    H   12  pz     Ryd( 3p)     0.00006       2.16197
   517    H   12  dxy    Ryd( 3d)     0.00008       2.20793
   518    H   12  dxy    Ryd( 4d)     0.00004       4.62578
   519    H   12  dxz    Ryd( 3d)     0.00006       1.49629
   520    H   12  dxz    Ryd( 4d)     0.00001       3.89960
   521    H   12  dyz    Ryd( 3d)     0.00002       1.58792
   522    H   12  dyz    Ryd( 4d)     0.00001       4.04757
   523    H   12  dx2y2  Ryd( 3d)     0.00004       2.01478
   524    H   12  dx2y2  Ryd( 4d)     0.00002       4.70427
   525    H   12  dz2    Ryd( 3d)     0.00003       2.19049
   526    H   12  dz2    Ryd( 4d)     0.00002       4.33606
 
   527    H   13  S      Val( 1S)     0.77388       0.03745
   528    H   13  S      Ryd( 4S)     0.00041       2.05531
   529    H   13  S      Ryd( 2S)     0.00012       0.62961
   530    H   13  S      Ryd( 3S)     0.00004       1.85289
   531    H   13  px     Ryd( 2p)     0.00145       0.93371
   532    H   13  px     Ryd( 4p)     0.00009       4.23877
   533    H   13  px     Ryd( 3p)     0.00004       3.26891
   534    H   13  py     Ryd( 2p)     0.00082       1.02029
   535    H   13  py     Ryd( 4p)     0.00015       4.36173
   536    H   13  py     Ryd( 3p)     0.00003       4.19347
   537    H   13  pz     Ryd( 2p)     0.00036       0.69253
   538    H   13  pz     Ryd( 4p)     0.00002       3.90861
   539    H   13  pz     Ryd( 3p)     0.00007       2.06987
   540    H   13  dxy    Ryd( 3d)     0.00008       2.04369
   541    H   13  dxy    Ryd( 4d)     0.00003       4.63802
   542    H   13  dxz    Ryd( 3d)     0.00002       1.42480
   543    H   13  dxz    Ryd( 4d)     0.00001       3.85977
   544    H   13  dyz    Ryd( 3d)     0.00002       1.60925
   545    H   13  dyz    Ryd( 4d)     0.00003       4.08103
   546    H   13  dx2y2  Ryd( 3d)     0.00006       2.04909
   547    H   13  dx2y2  Ryd( 4d)     0.00003       4.67092
   548    H   13  dz2    Ryd( 3d)     0.00002       2.12296
   549    H   13  dz2    Ryd( 4d)     0.00002       4.31293
 
   550    H   14  S      Val( 1S)     0.78048       0.02768
   551    H   14  S      Ryd( 3S)     0.00038       1.51961
   552    H   14  S      Ryd( 2S)     0.00013       1.07173
   553    H   14  S      Ryd( 4S)     0.00003       2.25747
   554    H   14  px     Ryd( 2p)     0.00079       1.03553
   555    H   14  px     Ryd( 4p)     0.00010       4.21576
   556    H   14  px     Ryd( 3p)     0.00004       3.51564
   557    H   14  py     Ryd( 2p)     0.00040       0.99091
   558    H   14  py     Ryd( 3p)     0.00015       4.13354
   559    H   14  py     Ryd( 4p)     0.00004       4.73622
   560    H   14  pz     Ryd( 2p)     0.00113       0.60885
   561    H   14  pz     Ryd( 4p)     0.00002       3.99862
   562    H   14  pz     Ryd( 3p)     0.00003       2.21138
   563    H   14  dxy    Ryd( 3d)     0.00010       2.35086
   564    H   14  dxy    Ryd( 4d)     0.00003       4.57673
   565    H   14  dxz    Ryd( 3d)     0.00001       1.76749
   566    H   14  dxz    Ryd( 4d)     0.00000       3.75824
   567    H   14  dyz    Ryd( 3d)     0.00004       1.69187
   568    H   14  dyz    Ryd( 4d)     0.00002       3.94198
   569    H   14  dx2y2  Ryd( 3d)     0.00004       2.20849
   570    H   14  dx2y2  Ryd( 4d)     0.00002       4.53463
   571    H   14  dz2    Ryd( 3d)     0.00004       2.25597
   572    H   14  dz2    Ryd( 4d)     0.00001       4.26449
 
   573    H   15  S      Val( 1S)     0.77160       0.04735
   574    H   15  S      Ryd( 3S)     0.00065       1.62918
   575    H   15  S      Ryd( 2S)     0.00035       1.18493
   576    H   15  S      Ryd( 4S)     0.00003       1.81832
[...]
 04702,-0.27967762,-0.10555129,-0.00022733,0.73014207,-0.03380983,-0.05
 737008,-0.00004746,-0.02881139,0.06604109,-0.00001047,-0.03064940,-0.1
 6907208,-0.00005770,-0.04105547,0.70253490,-0.00002289,-0.00003765,-0.
 00232759,-0.00005915,0.00003017,0.00758814,-0.00020590,-0.00012664,-0.
 06925541,0.00055435,0.00012529,0.12502518,-0.06268920,-0.03320363,-0.0
 0007484,-0.02345256,0.03564422,-0.00000972,0.05179318,-0.02852238,0.00
 003937,-0.12937833,-0.02465440,-0.00007134,0.73309809,0.02088484,0.066
 52385,0.00003660,0.02997886,-0.05088448,0.00001457,-0.08955566,-0.0348
 3955,-0.00009373,0.04968577,-0.34646074,-0.00003385,0.03378793,0.70573
 180,-0.00005916,-0.00001418,0.00674485,-0.00001128,0.00001968,-0.00238
 336,0.00002286,-0.00003659,0.00065758,-0.00005066,-0.00010416,-0.06059
 247,0.00056013,0.00019095,0.14605474,-0.26726702,-0.05282448,-0.000205
 01,0.04119644,-0.07405641,0.00001072,-0.08202856,-0.00098477,-0.000071
 18,0.02844443,0.08210085,0.00004214,-0.29885437,0.05039168,-0.00020429
 ,0.72115012,-0.11718113,-0.17125429,-0.00014106,-0.01991768,-0.0385123
 4,-0.00003189,-0.00128211,0.01267168,0.00000441,0.02513912,-0.02963354
 ,0.00001221,0.11414093,-0.16189029,0.00007871,-0.00790668,0.66403484,-
 0.00022303,-0.00008110,-0.06616992,0.00002554,-0.00008245,0.00745334,-
 0.00007178,0.00000434,-0.00613672,0.00002663,0.00006674,0.00834062,-0.
 00018641,0.00001807,-0.06522859,0.00054302,0.00013768,0.14151035,0.013
 78104,-0.02293734,0.00000569,-0.00490857,-0.00761156,-0.00001334,-0.00
 543798,0.00091874,-0.00000438,-0.00639830,0.00473628,-0.00001231,0.006
 98848,0.02820353,0.00001684,-0.09952400,-0.00485827,-0.00001747,0.8815
 9100,-0.01635162,-0.03336704,-0.00002448,-0.00686038,0.00880256,-0.000
 00573,-0.00166190,-0.01333243,-0.00000552,0.00538631,0.01100311,0.0000
 0637,0.01851778,-0.02194250,0.00001216,0.00609406,-0.21115308,-0.00003
 523,-0.18659403,0.74397782,0.00000918,-0.00003060,0.00023860,-0.000013
 17,-0.00000690,0.00681465,-0.00000521,-0.00000224,-0.00045075,-0.00001
 182,0.00000483,0.00817275,0.00001226,0.00002086,-0.00186302,-0.0000143
 6,-0.00003709,-0.08171929,0.00060603,-0.00007629,0.21905506,-0.0076508
 4,-0.00706479,-0.00000885,0.00026341,0.00329898,0.00000193,-0.00033874
 ,-0.00364901,-0.00000151,0.00187259,0.00227638,0.00000436,0.00361510,-
 0.00072635,-0.00000012,-0.00991903,0.03138839,-0.00002421,-0.56710444,
 0.28362880,-0.00042548,0.69044273,0.00442503,0.00169788,0.00000445,0.0
 0186505,-0.00095757,0.00000174,0.00242374,0.00486158,0.00000375,0.0003
 1773,-0.00498460,-0.00000099,-0.00789999,-0.00372777,-0.00000924,0.048
 06058,-0.03430221,0.00003474,0.27653478,-0.29229233,0.00023253,-0.3248
 2166,0.29507466,-0.00000679,-0.00000680,0.00014334,0.00000141,0.000003
 41,-0.00069589,0.00000036,-0.00000250,0.00006920,0.00000330,0.00000145
 ,-0.00181845,-0.00000127,-0.00000192,0.00336718,-0.00001955,0.00001471
 ,0.02165705,-0.00042888,0.00024221,-0.08088918,0.00057932,-0.00026737,
 0.03412654,0.00175472,0.00166636,0.00000071,0.00185328,-0.00103587,0.0
 0000181,0.00023835,0.00276424,0.00000106,0.00027223,-0.00248438,0.0000
 0011,-0.00507957,0.00285190,-0.00000487,-0.00145806,-0.01455258,-0.000
 01494,-0.22562228,-0.05019151,-0.00015678,-0.11492660,-0.00883181,-0.0
 0013815,0.41016640,0.00621535,-0.00398148,0.00000436,-0.00051570,-0.00
 333761,-0.00000145,-0.00127038,0.00350725,-0.00000009,-0.00123610,-0.0
 0103358,-0.00000125,-0.00219034,-0.00320387,-0.00000308,-0.04172828,-0
 .03271205,-0.00004788,-0.07993295,-0.17237249,-0.00009480,0.00303646,0
 .03884981,0.00000453,-0.00661898,0.66514084,0.00000147,0.00000034,0.00
 165255,0.00000206,-0.00000165,-0.00040434,-0.00000014,0.00000328,0.000
 00942,0.00000054,-0.00000217,-0.00069836,-0.00000555,0.00000183,0.0005
 2980,-0.00002238,-0.00002591,0.01204298,-0.00015975,-0.00006637,-0.065
 97816,-0.00013725,-0.00000648,0.02965929,0.00034350,0.00011855,0.03792
 276,-0.00935803,-0.00434026,-0.00001418,0.00359790,0.05307982,0.000011
 55,-0.11320214,0.00473079,-0.00006246,0.00639123,-0.03719017,-0.000015
 83,-0.00885280,0.00394142,-0.00001357,0.00510530,0.00147416,0.00000577
 ,-0.00011336,-0.00187481,0.00000012,0.00013941,0.00063576,0.00000017,0
 .00081315,0.00088395,0.00000084,0.39467596,0.00392776,0.01179622,0.000
 00583,0.02080917,-0.05415265,0.00000199,-0.03240747,-0.30972952,-0.000
 10808,-0.01281603,-0.04674108,-0.00002922,-0.00359271,0.00658674,-0.00
 000378,-0.00258704,-0.01627843,-0.00000673,-0.00100845,0.01624448,0.00
 000357,0.00381751,-0.00601619,0.00000222,-0.00323886,-0.00456955,-0.00
 000402,-0.10494877,0.54007212,-0.00001190,-0.00000099,0.00448545,0.000
 00288,0.00003243,0.00761840,-0.00007444,-0.00006909,-0.04835592,-0.000
 00830,-0.00004976,0.01125900,-0.00001480,0.00000283,0.00662248,0.00000
 374,-0.00000330,-0.00061049,0.00000019,0.00000316,-0.00070001,0.000001
 16,-0.00000116,0.00010770,-0.00000024,-0.00000053,0.00009118,0.0002958
 4,0.00002603,0.07254932,0.00001988,0.00083635,-0.00000131,0.00246512,-
 0.00505507,-0.00000267,0.00096928,0.01995516,0.00001098,0.00213033,-0.
 01085862,0.00000089,-0.00246382,0.00250378,-0.00000222,0.00091187,-0.0
 0419435,-0.00000049,0.00001432,0.00483807,0.00000165,0.00091677,-0.001
 82360,0.00000039,-0.00112975,-0.00148120,-0.00000135,-0.21925029,0.075
 82790,-0.00013908,0.50959511,0.00143513,-0.00150392,0.00000035,-0.0046
 0092,-0.00128325,-0.00000543,0.03988293,-0.04290479,0.00003030,0.00023
 281,0.00076311,0.00000123,0.00237738,-0.00109077,0.00000194,-0.0000341
 8,0.00257526,0.00000060,0.00024316,-0.00299898,-0.00000050,-0.00070028
 ,0.00108848,-0.00000042,0.00061365,0.00089211,0.00000077,0.04389678,-0
 .11506075,0.00002913,0.05961861,0.60609957,-0.00000108,-0.00000043,0.0
 0157416,-0.00000216,-0.00000652,0.00326848,0.00001744,0.00000960,-0.00
 462789,0.00000384,-0.00001027,-0.00176093,-0.00000261,0.00000229,0.000
 53812,0.00000102,-0.00000340,0.00019666,0.00000044,0.00000400,-0.00036
 439,0.00000064,-0.00000151,0.00005637,-0.00000093,-0.00000121,-0.00001
 569,-0.00014939,0.00006320,-0.06121898,-0.00005668,0.00006797,0.579328
 01,-0.28350497,0.11793965,-0.00019290,0.00468653,-0.00180095,-0.000001
 10,0.00139415,-0.00112334,-0.00000725,0.00052588,-0.00060152,0.0000012
 1,-0.00301919,-0.00400566,-0.00000916,-0.01873535,0.01357803,-0.000018
 52,-0.00278951,0.00231534,0.00000141,0.00247337,0.00059121,0.00000283,
 0.00080111,-0.00003894,0.00000062,0.00015114,0.00004509,0.00000023,0.0
 0006185,-0.00009676,0.00000037,0.29844284,0.11952562,-0.12174426,0.000
 08974,0.02721305,-0.00883659,0.00002149,-0.00094720,-0.00442754,-0.000
 00466,-0.00061156,-0.00106715,-0.00000061,-0.00367253,-0.00165150,-0.0
 0000548,-0.01372962,0.01291728,-0.00001057,-0.00223582,0.00068194,-0.0
 0000082,0.00082009,-0.00175308,0.00000039,0.00136499,0.00046776,0.0000
 0129,0.00163049,-0.00083074,0.00000142,-0.00029066,-0.00024496,-0.0000
 0030,-0.12782291,0.12482234,-0.00019290,0.00008798,-0.04266643,0.00000
 716,-0.00000543,0.00528077,-0.00000698,-0.00000477,0.00875011,0.000001
 14,-0.00000077,-0.00094059,-0.00000911,-0.00000575,0.00545213,-0.00002
 583,0.00001533,0.00501501,0.00000023,0.00000313,-0.00369827,0.00000270
 ,0.00000021,-0.00024153,0.00000103,0.00000010,0.00008215,0.00000064,-0
 .00000016,-0.00007290,0.00000037,-0.00000007,-0.00035394,0.00021771,-0
 .00009263,0.02837733,0.00671741,0.00259772,0.00000412,-0.25897375,-0.1
 3158062,-0.00024587,-0.01894930,-0.01871000,-0.00002817,-0.00389131,0.
 00344675,-0.00000725,-0.00007727,0.00143383,0.00000101,0.00190145,0.00
 123610,-0.00000528,0.00030100,0.00028707,-0.00000024,-0.00000752,-0.00
 012198,-0.00000005,-0.00001158,0.00006951,0.00000020,0.00225450,-0.001
 17436,0.00000488,-0.00001925,0.00040246,0.00000059,0.00054951,-0.00044
 788,0.00000486,0.27081556,-0.02678218,-0.01162614,-0.00002936,-0.13361
 292,-0.14592851,-0.00015597,0.01263499,0.01076552,0.00001342,0.0027361
 2,-0.00092966,0.00000097,0.00082903,-0.00076191,0.00000076,0.00182555,
 -0.00493114,-0.00000200,-0.00158044,0.00053402,-0.00000159,0.00032798,
 -0.00025143,0.00000029,-0.00009192,-0.00079580,-0.00000018,-0.00070138
 ,0.00095620,0.00000047,0.00003982,0.00004980,0.00000023,0.00032242,0.0
 0117145,0.00000197,0.14362449,0.15129068,-0.00000411,-0.00000168,0.003
 07312,-0.00024638,-0.00015401,-0.03658595,-0.00001940,-0.00001633,0.00
 538350,-0.00000747,0.00000168,0.00485384,0.00000086,0.00000132,-0.0007
 2407,-0.00000524,-0.00000246,0.00793660,-0.00000074,0.00000020,0.00068
 024,0.00000005,-0.00000016,0.00001046,0.00000017,-0.00000010,-0.000222
 39,0.00000503,0.00000011,-0.00322945,0.00000056,0.00000060,-0.00059234
 ,0.00000511,0.00000126,-0.00478002,0.00027117,0.00017020,0.02512387,0.
 00004744,-0.00132955,0.00000040,-0.00306540,-0.00376203,-0.00000915,-0
 .01776807,0.01481232,-0.00001580,-0.29396733,0.11327483,-0.00021124,0.
 00295349,-0.00061804,0.00000060,0.00226317,-0.00036147,-0.00000480,0.0
 0014001,-0.00040237,-0.00000090,-0.00005657,0.00007861,0.00000039,0.00
 004969,0.00015355,0.00000011,0.00110604,0.00069508,0.00000383,-0.00055
 629,0.00134468,-0.00000003,-0.00002781,0.00006938,0.00000071,-0.000892
 73,0.00078272,-0.00000056,0.30760260,-0.00085967,-0.00105861,-0.000000
 90,-0.00318243,-0.00165589,-0.00000499,-0.01410747,0.01362389,-0.00001
 031,0.11453273,-0.11286702,0.00008436,0.02933734,-0.00973366,0.0000240
 1,-0.00092658,-0.00538759,-0.00000454,0.00153046,0.00084425,0.00000131
 ,0.00027494,-0.00094197,0.00000022,-0.00029884,-0.00021885,-0.00000028
 ,0.00245998,-0.00037326,0.00000305,-0.00175891,-0.00317924,-0.00000217
 ,0.00008983,0.00002017,0.00000030,-0.00090334,0.00044500,-0.00000073,-
 0.12523698,0.12276634,0.00000050,-0.00000136,-0.00077085,-0.00000903,-
 0.00000559,0.00553758,-0.00002421,0.00001674,0.00361737,-0.00021105,0.
 00008303,-0.03327352,0.00000911,-0.00000390,0.00212673,-0.00000490,-0.
 00000388,0.00729107,-0.00000041,-0.00000041,0.00096587,0.00000046,-0.0
 0000010,-0.00044734,0.,0.00000010,-0.00003214,0.00000437,0.00000161,-0
 .00275844,-0.00000044,0.00000046,-0.00040104,0.00000072,0.00000029,-0.
 00076467,-0.00000104,0.00000088,-0.00007493,0.00022942,-0.00008930,0.0
 2394737,-0.00377071,0.00398311,-0.00000821,0.00033329,0.00077244,0.000
 00157,0.00136378,0.00158341,-0.00000565,0.00637233,0.00323725,0.000002
 21,-0.26477868,-0.12958907,-0.00024680,-0.01791759,-0.01684923,-0.0000
 2575,-0.00220357,-0.00221535,0.00000150,0.00093182,0.00028281,0.000000
 35,0.00148120,-0.00045004,0.00000097,0.00030178,0.00014926,0.00000080,
 -0.00003070,-0.00002848,-0.00000002,-0.00092004,-0.00096811,-0.0000015
 6,-0.00000635,-0.00011314,0.00000069,0.00069334,-0.00035426,0.00000458
 ,0.27755661,0.00360432,-0.00075993,0.00000143,0.00078849,-0.00089917,0
 .00000079,0.00153254,-0.00475553,-0.00000218,-0.02581143,-0.01155911,-
 0.00002896,-0.13176476,-0.14146310,-0.00015222,0.01147292,0.01208519,0
 .00001306,0.00103104,0.00170862,0.00000256,-0.00083859,0.00004670,-0.0
 0000099,0.00028611,-0.00379528,-0.00000068,-0.00136747,-0.00122152,-0.
 00000143,-0.00044178,0.00034504,-0.00000036,0.00075338,0.00061326,0.00
 000076,-0.00006320,0.00001658,0.00000016,0.00024510,0.00116111,0.00000
 179,0.14040734,0.14850754,-0.00000819,0.00000185,0.00623064,0.00000162
 ,0.00000059,-0.00109253,-0.00000597,-0.00000213,0.00786868,-0.00000603
 ,-0.00000131,0.00501168,-0.00024668,-0.00015064,-0.04112234,-0.0000184
 2,-0.00001312,0.00443267,0.00000228,-0.00000084,-0.00429341,-0.0000000
 5,0.00000026,0.00064443,0.00000128,-0.00000140,0.00026341,0.00000046,-
 0.00000004,-0.00050269,-0.00000014,0.00000008,-0.00002621,-0.00000103,
 -0.00000086,0.00042291,0.00000072,0.00000011,-0.00077570,0.00000476,0.
 00000121,-0.00429897,0.00027472,0.00016610,0.02730015,0.00053647,-0.00
 132309,-0.00000055,-0.00049808,-0.00011113,-0.00000023,-0.00019628,-0.
 00015173,-0.00000032,0.00039076,0.00026471,0.00000034,-0.00043588,0.00
 062277,0.,-0.00607718,-0.00135472,-0.00000960,0.01113122,-0.05332033,-
 0.00000390,-0.00032570,0.00772876,0.00000634,-0.06956456,0.12460625,-0
 .00002432,-0.00002659,0.00037645,0.00000015,0.00013566,-0.00008000,0.0
 0000007,-0.00008309,-0.00009095,-0.00000025,0.00002386,-0.00010680,0.0
 0000009,-0.00000295,0.00001959,0.,0.00058812,0.00000579,0.00000069,0.0
 6443718,0.00026186,-0.00098527,-0.00000012,-0.00066293,0.00037841,-0.0
 0000048,0.00007598,-0.00056415,-0.00000011,0.00028931,0.00026859,0.000
 00032,-0.00010226,0.00069220,0.00000014,-0.00328214,0.00189488,-0.0000
 0297,-0.00631130,-0.03646430,-0.00001472,0.00890844,0.00363381,0.00001
 054,0.07784110,-0.48273384,-0.00001826,-0.00010287,0.00075747,0.000000
 13,0.00023285,-0.00015183,0.00000018,-0.00013871,-0.00008618,-0.000000
 17,0.00003782,-0.00004764,0.00000003,-0.00002691,0.00001076,-0.0000000
 3,0.00013788,0.00001124,0.00000015,-0.07708614,0.51337353,-0.00000017,
 -0.00000152,0.00072086,-0.00000021,0.00000002,-0.00033979,-0.00000031,
 -0.00000030,0.00010822,0.00000029,0.00000031,0.00009995,-0.00000013,0.
 00000067,-0.00025718,-0.00001011,-0.00000250,0.00415178,0.00000544,-0.
 00005482,0.00402645,0.00000717,0.00000879,-0.00575959,-0.00003411,0.00
 002371,-0.01491223,0.00000002,0.00000050,-0.00007146,0.00000013,-0.000
 00011,0.00004449,-0.00000026,-0.00000015,0.00017215,0.00000012,-0.0000
 0008,-0.00010549,0.,0.00000002,0.00000473,0.00000067,0.00000004,-0.000
 14345,0.00003151,0.00002543,0.01227050,-0.00057880,-0.00028471,-0.0000
 0057,0.00026608,0.00173044,0.00000056,-0.00503959,0.00079317,-0.000005
 86,-0.00125789,-0.00041140,-0.00000161,0.00051705,0.00019588,0.0000003
 8,0.00020279,0.00003994,0.00000026,0.00003536,-0.00013813,0.00000003,0
 .00000016,0.00001970,0.,0.00004974,0.00004781,0.00000005,0.00000432,0.
 04375881,0.00000924,-0.06757667,-0.08336002,-0.00003190,0.00001476,0.0
 0012239,0.00000009,-0.00002336,-0.00002794,-0.00000008,0.00084172,-0.0
 0046297,0.00000105,-0.00001391,0.00006835,-0.00000003,-0.00000047,-0.0
 0000349,0.,0.07790687,0.00031759,0.00005039,0.00000027,-0.00019102,-0.
 00089192,-0.00000048,0.00266140,0.00219262,0.00000370,0.00004307,0.000
 10729,-0.00000003,-0.00007132,0.00010932,-0.00000007,0.00003291,-0.000
 27340,-0.00000003,-0.00000637,0.00046038,0.00000011,0.00009648,-0.0002
 1114,0.00000004,-0.00009802,-0.00016108,-0.00000013,0.00356604,-0.0223
 5905,-0.00000209,-0.06867366,-0.30786419,-0.00011795,-0.00001328,-0.00
 006527,-0.00000002,0.00003241,-0.00000266,0.00000004,0.00010967,0.0000
 7705,0.00000018,0.00000027,-0.00002055,-0.00000002,0.00001462,0.000027
 83,0.00000002,0.06752550,0.33767608,-0.00000055,-0.00000037,0.00000898
 ,-0.00000008,0.00000151,0.00024320,-0.00000463,0.00000078,0.00042578,-
 0.00000161,-0.00000069,0.00043350,0.00000025,0.00000027,0.00021773,0.0
 0000037,-0.00000002,-0.00007833,0.00000008,0.,-0.00004249,0.00000002,-
 0.00000004,0.00001083,0.00000002,0.,0.00000162,0.00000022,0.00003809,0
 .00044586,-0.00002876,-0.00013221,-0.05210604,0.00000006,0.00000012,-0
 .00004889,-0.00000003,-0.00000003,0.00001948,0.00000129,-0.00000039,-0
 .00043833,-0.00000006,0.00000005,0.00004290,0.,0.,0.00000082,0.0000426
 4,0.00012409,0.04745749,-0.00014211,-0.00064560,-0.00024769,-0.0007564
 6,0.00130336,-0.00049112,0.00027335,-0.00674059,0.00063253,0.00072898,
 0.00059514,-0.00034964,0.00005884,0.00000604,-0.00008700,0.00030264,0.
 00073101,0.00005825,0.00005975,-0.00072878,0.00004363,-0.00016297,0.00
 026769,-0.00001098,0.00015635,0.00022509,-0.00000526,-0.03189522,0.006
 18348,0.02472552,-0.11330562,-0.03064421,0.10470941,-0.00001063,0.0000
 3563,0.00005514,0.00014448,-0.00005330,0.00017875,0.00032051,-0.000076
 46,-0.00005234,0.00000965,0.00004597,-0.00000843,-0.00001624,-0.000034
 25,-0.00000008,-0.00267882,-0.00267451,0.00668174,0.13607848,0.0004778
 2,0.00092149,0.00020081,0.00070201,-0.00118800,0.00056313,0.00058992,0
 .00474426,-0.00181599,-0.00106575,0.00050033,-0.00014003,0.00051942,-0
 .00099698,0.00053817,-0.00095913,0.00007466,0.00001886,-0.00006058,-0.
 00016700,-0.00013957,-0.00003692,0.00009267,0.00003078,0.00002722,0.00
 002885,0.00001133,0.01712908,0.00046468,-0.01671134,-0.03471260,-0.067
 78683,0.05498332,0.00000363,0.00000655,-0.00005852,-0.00008329,0.00002
 284,-0.00010939,0.00008730,-0.00176579,-0.00159293,0.00000700,-0.00001
 052,-0.00005448,-0.00000704,-0.00000776,0.00000244,-0.01483207,-0.0044
 3120,0.02624449,0.02898380,0.06750435,-0.00006521,0.00019226,-0.000029
 67,0.00006266,-0.00045698,-0.00022164,0.00017850,0.00176356,0.00056840
 ,0.00115399,-0.00019421,-0.00005806,-0.00058655,0.00023828,-0.00007064
 ,0.00004730,-0.00023705,-0.00004234,-0.00001427,0.00024680,0.00002275,
 0.00001504,-0.00003447,-0.00000022,-0.00007638,-0.00005686,0.00000397,
 0.00247377,-0.00509443,0.00719312,0.10898664,0.05069500,-0.23153890,-0
 .00000154,-0.00002076,0.00000737,-0.00007252,0.00003963,0.00000471,-0.
 00066179,-0.00017261,-0.00011625,0.00001002,-0.00004493,0.00001888,0.0
 0000342,0.00000583,-0.00000537,-0.00187831,-0.00006547,0.00171269,-0.1
 2273495,-0.05439496,0.24310796,-0.00014271,-0.00064546,0.00024708,-0.0
 0075737,0.00130208,0.00049089,0.00027551,-0.00673705,-0.00063661,0.000
 73053,0.00059438,0.00035154,0.00005746,0.00000655,0.00008731,0.0003029
 4,0.00073054,-0.00005721,0.00005982,-0.00072821,-0.00004394,-0.0001629
 6,0.00026759,0.00001080,0.00015617,0.00022495,0.00000564,-0.03184229,0
 .00618318,-0.02479969,-0.11288780,-0.03050275,-0.10448902,-0.00001054,
 0.00003560,-0.00005515,0.00014466,-0.00005311,-0.00017851,0.00031916,-
 0.00007695,0.00005321,0.00000966,0.00004588,0.00000843,-0.00001623,-0.
 00003424,0.00000004,-0.00266934,-0.00267176,-0.00669098,0.01083504,0.0
 0323018,0.01316020,0.13559829,0.00047821,0.00092186,-0.00019937,0.0007
 0326,-0.00118788,-0.00056228,0.00058630,0.00474465,0.00181990,-0.00106
 553,0.00050024,0.00013829,0.00052029,-0.00099679,-0.00053773,-0.000959
 25,0.00007458,-0.00002059,-0.00006086,-0.00016701,0.00013935,-0.000036
 86,0.00009269,-0.00003080,0.00002722,0.00002885,-0.00001126,0.01709747
 ,0.00045483,0.01674107,-0.03456209,-0.06774386,-0.05498668,0.00000352,
 0.00000652,0.00005851,-0.00008353,0.00002279,0.00010925,0.00008413,-0.
 00176669,0.00159242,0.00000690,-0.00001057,0.00005447,-0.00000703,-0.0
 0000776,-0.00000245,-0.01478126,-0.00442050,-0.02627566,0.00322051,0.0
 0199340,0.00759137,0.02882861,0.06746065,0.00006521,-0.00019316,-0.000
 02926,-0.00006346,0.00045926,-0.00022077,-0.00017880,-0.00177512,0.000
 56695,-0.00115284,0.00019565,-0.00005929,0.00058702,-0.00023874,-0.000
 06966,-0.00004705,0.00023863,-0.00004246,0.00001433,-0.00024835,0.0000
 2259,-0.00001539,0.00003504,-0.00000021,0.00007670,0.00005731,0.000004
 15,-0.00254337,0.00510332,0.00714783,-0.10876847,-0.05068969,-0.231999
 94,0.00000151,0.00002083,0.00000730,0.00007276,-0.00003972,0.00000452,
 0.00066277,0.00017174,-0.00011423,-0.00001003,0.00004500,0.00001894,-0
 .00000345,-0.00000589,-0.00000538,0.00186405,0.00005781,0.00169319,-0.
 01309747,-0.00757612,-0.02055675,0.12253598,0.05438221,0.24363249\\0.0
 0007323,0.00002228,-0.00000116,0.00005738,-0.00004210,0.00000042,-0.00
 025447,-0.00014987,0.00000129,0.00012298,0.00031206,0.00000061,0.00011
 578,-0.00027750,-0.00000127,-0.00011577,-0.00000848,-0.00000819,-0.000
 15952,0.00008639,0.00002894,0.00007939,-0.00004148,-0.00001107,0.00003
 112,0.00004291,-0.00000849,0.00002230,0.00008202,-0.00000152,0.0000370
 2,-0.00006265,0.00000023,-0.00000323,0.00002309,0.00000002,-0.00000271
 ,-0.00001769,0.00000024,-0.00000478,-0.00003152,0.00000008,-0.00000924
 ,0.00004912,-0.00000008,0.00000058,-0.00003051,-0.00000019,-0.00001833
 ,0.00001403,0.00000021,0.00001418,0.00001463,-0.00000925,0.00001409,0.
 00001529,0.00000920\\\@
 The archive entry for this job was punched.


 HERE WE GO......
 SLIDING DOWN THE RAZOR BLADE OF LIFE......
                                 TOM LEHRER
 Job cpu time:       0 days 22 hours 57 minutes 17.0 seconds.
 Elapsed time:       0 days  0 hours 34 minutes 27.0 seconds.
 File lengths (MBytes):  RWF=    588 Int=      0 D2E=      0 Chk=     43 Scr=      1
 Normal termination of Gaussian 16 at Mon Sep  5 21:01:59 2022.
