 Entering Gaussian System, Link 0=g16
 Initial command:
 /usr/local/gaussian16c01/g16/l1.exe "/scr/dhuang/Gau-43670.inp" -scrdir="/scr/dhuang/"
 Entering Link 1 = /usr/local/gaussian16c01/g16/l1.exe PID=     43671.
  
 Copyright (c) 1988-2019, Gaussian, Inc.  All Rights Reserved.
  
 This is part of the Gaussian(R) 16 program.  It is based on
 the Gaussian(R) 09 system (copyright 2009, Gaussian, Inc.),
 the Gaussian(R) 03 system (copyright 2003, Gaussian, Inc.),
 the Gaussian(R) 98 system (copyright 1998, Gaussian, Inc.),
 the Gaussian(R) 94 system (copyright 1995, Gaussian, Inc.),
 the Gaussian 92(TM) system (copyright 1992, Gaussian, Inc.),
 the Gaussian 90(TM) system (copyright 1990, Gaussian, Inc.),
 the Gaussian 88(TM) system (copyright 1988, Gaussian, Inc.),
 the Gaussian 86(TM) system (copyright 1986, Carnegie Mellon
 University), and the Gaussian 82(TM) system (copyright 1983,
 Carnegie Mellon University). Gaussian is a federally registered
 trademark of Gaussian, Inc.
  
 This software contains proprietary and confidential information,
 including trade secrets, belonging to Gaussian, Inc.
  
 This software is provided under written license and may be
 used, copied, transmitted, or stored only in accord with that
 written license.
  
 The following legend is applicable only to US Government
 contracts under FAR:
  
                    RESTRICTED RIGHTS LEGEND
  
 Use, reproduction and disclosure by the US Government is
 subject to restrictions as set forth in subparagraphs (a)
 and (c) of the Commercial Computer Software - Restricted
 Rights clause in FAR 52.227-19.
  
 Gaussian, Inc.
 340 Quinnipiac St., Bldg. 40, Wallingford CT 06492
  
  
 ---------------------------------------------------------------
 Warning -- This program may not be used in any manner that
 competes with the business of Gaussian, Inc. or will provide
 assistance to any competitor of Gaussian, Inc.  The licensee
 of this program is prohibited from giving any competitor of
 Gaussian, Inc. access to this program.  By using this program,
 the user acknowledges that Gaussian, Inc. is engaged in the
 business of creating and licensing software in the field of
 computational chemistry and represents and warrants to the
 licensee that it is not a competitor of Gaussian, Inc. and that
 it will not use this program in any manner prohibited above.
 ---------------------------------------------------------------
  

 Cite this work as:
 Gaussian 16, Revision C.01,
 M. J. Frisch, G. W. Trucks, H. B. Schlegel, G. E. Scuseria, 
 M. A. Robb, J. R. Cheeseman, G. Scalmani, V. Barone, 
 G. A. Petersson, H. Nakatsuji, X. Li, M. Caricato, A. V. Marenich, 
 J. Bloino, B. G. Janesko, R. Gomperts, B. Mennucci, H. P. Hratchian, 
 J. V. Ortiz, A. F. Izmaylov, J. L. Sonnenberg, D. Williams-Young, 
 F. Ding, F. Lipparini, F. Egidi, J. Goings, B. Peng, A. Petrone, 
 T. Henderson, D. Ranasinghe, V. G. Zakrzewski, J. Gao, N. Rega, 
 G. Zheng, W. Liang, M. Hada, M. Ehara, K. Toyota, R. Fukuda, 
 J. Hasegawa, M. Ishida, T. Nakajima, Y. Honda, O. Kitao, H. Nakai, 
 T. Vreven, K. Throssell, J. A. Montgomery, Jr., J. E. Peralta, 
 F. Ogliaro, M. J. Bearpark, J. J. Heyd, E. N. Brothers, K. N. Kudin, 
 V. N. Staroverov, T. A. Keith, R. Kobayashi, J. Normand, 
 K. Raghavachari, A. P. Rendell, J. C. Burant, S. S. Iyengar, 
 J. Tomasi, M. Cossi, J. M. Millam, M. Klene, C. Adamo, R. Cammi, 
 J. W. Ochterski, R. L. Martin, K. Morokuma, O. Farkas, 
 J. B. Foresman, and D. J. Fox, Gaussian, Inc., Wallingford CT, 2019.
 
 ******************************************
 Gaussian 16:  ES64L-G16RevC.01  3-Jul-2019
                 5-Sep-2022 
 ******************************************
 %nprocshared=40
 Will use up to   40 processors via shared memory.
 %mem=10000MW
 %chk=H.chk
 ------------------------------------
 # opt freq M062x/aug-cc-pvtz pop=nbo
 ------------------------------------
 1/18=20,19=15,26=3,38=1/1,3;
 2/9=110,12=2,17=6,18=5,40=1/2;
 3/5=16,6=1,7=10,11=2,25=1,30=1,71=1,74=-55/1,2,3;
 4//1;
 5/5=2,38=5/2;
 6/7=2,8=2,9=2,10=2,28=1,40=1/1,7;
 7//1,2,3,16;
 1/18=20,19=15,26=3/3(2);
 2/9=110/2;
 99//99;
 2/9=110/2;
 3/5=16,6=1,7=10,11=2,25=1,30=1,71=1,74=-55/1,2,3;
 4/5=5,16=3,69=1/1;
 5/5=2,38=5/2;
 7//1,2,3,16;
 1/18=20,19=15,26=3/3(-5);
 2/9=110/2;
 6/7=2,8=2,9=2,10=2,19=2,28=1,40=1/1,7;
 99/9=1/99;
 --------------
 H_benzoic-acid
 --------------
 Symbolic Z-matrix:
 Charge =  0 Multiplicity = 1
 C                    -1.1549   -0.3136   -0.0008 
 C                    -1.138    -1.6563   -0.0011 
 C                     0.029    -2.317    -0.0003 
 C                     1.1788   -1.6271    0.0008 
 C                     1.1605   -0.2845    0.0011 
 C                    -0.0056    0.3895    0.0003 
 C                    -0.0041    1.7544    0.0006 
 O                    -1.0209    2.4156   -0.0001 
 O                     1.1432    2.4784    0.0017 
 H                    -2.141     0.18     -0.0015 
 H                    -2.0858   -2.2209   -0.002 
 H                     0.0429   -3.4197   -0.0006 
 H                     2.141    -2.1668    0.0014 
 H                     2.1316    0.2381    0.002 
 H                     0.9064    3.4197    0.0017 
 

 GradGradGradGradGradGradGradGradGradGradGradGradGradGradGradGradGradGrad
 Berny optimization.
 Initialization pass.
                           ----------------------------
                           !    Initial Parameters    !
                           ! (Angstroms and Degrees)  !
 --------------------------                            --------------------------
 ! Name  Definition              Value          Derivative Info.                !
 --------------------------------------------------------------------------------
 ! R1    R(1,2)                  1.3428         estimate D2E/DX2                !
 ! R2    R(1,6)                  1.3473         estimate D2E/DX2                !
 ! R3    R(1,10)                 1.1027         estimate D2E/DX2                !
 ! R4    R(2,3)                  1.341          estimate D2E/DX2                !
 ! R5    R(2,11)                 1.1032         estimate D2E/DX2                !
 ! R6    R(3,4)                  1.3409         estimate D2E/DX2                !
 ! R7    R(3,12)                 1.1028         estimate D2E/DX2                !
 ! R8    R(4,5)                  1.3427         estimate D2E/DX2                !
 ! R9    R(4,13)                 1.1032         estimate D2E/DX2                !
 ! R10   R(5,6)                  1.3469         estimate D2E/DX2                !
 ! R11   R(5,14)                 1.1028         estimate D2E/DX2                !
 ! R12   R(6,7)                  1.3649         estimate D2E/DX2                !
 ! R13   R(7,8)                  1.2129         estimate D2E/DX2                !
 ! R14   R(7,9)                  1.3566         estimate D2E/DX2                !
 ! R15   R(9,15)                 0.9706         estimate D2E/DX2                !
 ! A1    A(2,1,6)              120.7357         estimate D2E/DX2                !
 ! A2    A(2,1,10)             117.3117         estimate D2E/DX2                !
 ! A3    A(6,1,10)             121.9526         estimate D2E/DX2                !
 ! A4    A(1,2,3)              120.2376         estimate D2E/DX2                !
 ! A5    A(1,2,11)             120.0609         estimate D2E/DX2                !
 ! A6    A(3,2,11)             119.7015         estimate D2E/DX2                !
 ! A7    A(2,3,4)              119.519          estimate D2E/DX2                !
 ! A8    A(2,3,12)             120.2387         estimate D2E/DX2                !
 ! A9    A(4,3,12)             120.2423         estimate D2E/DX2                !
 ! A10   A(3,4,5)              120.1836         estimate D2E/DX2                !
 ! A11   A(3,4,13)             119.7474         estimate D2E/DX2                !
 ! A12   A(5,4,13)             120.0691         estimate D2E/DX2                !
 ! A13   A(4,5,6)              120.8086         estimate D2E/DX2                !
 ! A14   A(4,5,14)             117.5061         estimate D2E/DX2                !
 ! A15   A(6,5,14)             121.6853         estimate D2E/DX2                !
 ! A16   A(1,6,5)              118.5155         estimate D2E/DX2                !
 ! A17   A(1,6,7)              121.5197         estimate D2E/DX2                !
 ! A18   A(5,6,7)              119.9647         estimate D2E/DX2                !
 ! A19   A(6,7,8)              122.972          estimate D2E/DX2                !
 ! A20   A(6,7,9)              122.3168         estimate D2E/DX2                !
 ! A21   A(8,7,9)              114.7112         estimate D2E/DX2                !
 ! A22   A(7,9,15)             108.1331         estimate D2E/DX2                !
 ! D1    D(6,1,2,3)              0.0002         estimate D2E/DX2                !
 ! D2    D(6,1,2,11)           179.9998         estimate D2E/DX2                !
 ! D3    D(10,1,2,3)           179.9995         estimate D2E/DX2                !
 ! D4    D(10,1,2,11)           -0.0009         estimate D2E/DX2                !
 ! D5    D(2,1,6,5)             -0.0004         estimate D2E/DX2                !
 ! D6    D(2,1,6,7)            179.999          estimate D2E/DX2                !
 ! D7    D(10,1,6,5)          -179.9996         estimate D2E/DX2                !
 ! D8    D(10,1,6,7)            -0.0002         estimate D2E/DX2                !
 ! D9    D(1,2,3,4)             -0.0001         estimate D2E/DX2                !
 ! D10   D(1,2,3,12)          -179.9968         estimate D2E/DX2                !
 ! D11   D(11,2,3,4)          -179.9997         estimate D2E/DX2                !
 ! D12   D(11,2,3,12)            0.0037         estimate D2E/DX2                !
 ! D13   D(2,3,4,5)              0.0001         estimate D2E/DX2                !
 ! D14   D(2,3,4,13)          -179.9964         estimate D2E/DX2                !
 ! D15   D(12,3,4,5)           179.9968         estimate D2E/DX2                !
 ! D16   D(12,3,4,13)            0.0003         estimate D2E/DX2                !
 ! D17   D(3,4,5,6)             -0.0003         estimate D2E/DX2                !
 ! D18   D(3,4,5,14)          -179.9991         estimate D2E/DX2                !
 ! D19   D(13,4,5,6)           179.9962         estimate D2E/DX2                !
 ! D20   D(13,4,5,14)           -0.0026         estimate D2E/DX2                !
 ! D21   D(4,5,6,1)              0.0005         estimate D2E/DX2                !
 ! D22   D(4,5,6,7)           -179.999          estimate D2E/DX2                !
 ! D23   D(14,5,6,1)           179.9992         estimate D2E/DX2                !
 ! D24   D(14,5,6,7)            -0.0002         estimate D2E/DX2                !
 ! D25   D(1,6,7,8)             -0.0004         estimate D2E/DX2                !
 ! D26   D(1,6,7,9)           -179.9999         estimate D2E/DX2                !
 ! D27   D(5,6,7,8)            179.999          estimate D2E/DX2                !
 ! D28   D(5,6,7,9)             -0.0005         estimate D2E/DX2                !
 ! D29   D(6,7,9,15)           179.9993         estimate D2E/DX2                !
 ! D30   D(8,7,9,15)            -0.0002         estimate D2E/DX2                !
 --------------------------------------------------------------------------------
 Trust Radius=3.00D-01 FncErr=1.00D-07 GrdErr=1.00D-06 EigMax=2.50D+02 EigMin=1.00D-04
 Number of steps in this run=     77 maximum allowed number of steps=    100.
 GradGradGradGradGradGradGradGradGradGradGradGradGradGradGradGradGradGrad

                          Input orientation:                          
 ---------------------------------------------------------------------
 Center     Atomic      Atomic             Coordinates (Angstroms)
 Number     Number       Type             X           Y           Z
 ---------------------------------------------------------------------
      1          6           0       -1.154900   -0.313600   -0.000800
      2          6           0       -1.138000   -1.656300   -0.001100
      3          6           0        0.029000   -2.317000   -0.000300
      4          6           0        1.178800   -1.627100    0.000800
      5          6           0        1.160500   -0.284500    0.001100
      6          6           0       -0.005600    0.389500    0.000300
      7          6           0       -0.004100    1.754400    0.000600
      8          8           0       -1.020900    2.415600   -0.000100
      9          8           0        1.143200    2.478400    0.001700
     10          1           0       -2.141000    0.180000   -0.001500
     11          1           0       -2.085800   -2.220900   -0.002000
     12          1           0        0.042900   -3.419700   -0.000600
     13          1           0        2.141000   -2.166800    0.001400
     14          1           0        2.131600    0.238100    0.002000
     15          1           0        0.906400    3.419700    0.001700
 ---------------------------------------------------------------------
                    Distance matrix (angstroms):
                    1          2          3          4          5
     1  C    0.000000
     2  C    1.342806   0.000000
     3  C    2.327065   1.341050   0.000000
     4  C    2.677955   2.316985   1.340896   0.000000
     5  C    2.315584   2.676741   2.326231   1.342725   0.000000
     6  C    1.347309   2.338296   2.706721   2.338692   1.346873
     7  C    2.366636   3.594246   4.071535   3.582429   2.348064
     8  O    2.732488   4.073584   4.847658   4.602402   3.471174
     9  O    3.616149   4.722248   4.923140   4.105654   2.762954
    10  H    1.102740   2.092369   3.308158   3.779774   3.334017
    11  H    2.122350   1.103222   2.116983   3.318165   3.779963
    12  H    3.329051   2.122288   1.102788   2.122189   3.328440
    13  H    3.781179   3.318502   2.117335   1.103225   2.122365
    14  H    3.332486   3.778762   3.308998   2.094469   1.102790
    15  H    4.264562   5.472235   5.803409   5.054146   3.712905
                    6          7          8          9         10
     6  C    0.000000
     7  C    1.364901   0.000000
     8  O    2.266256   1.212876   0.000000
     9  O    2.383956   1.356641   2.165012   0.000000
    10  H    2.145653   2.654257   2.500507   4.008569   0.000000
    11  H    3.337877   4.487370   4.757221   5.701743   2.401535
    12  H    3.809509   5.174314   5.931475   5.999854   4.210375
    13  H    3.338048   4.469593   5.567405   4.751156   4.882930
    14  H    2.142557   2.619233   3.831418   2.448648   4.272996
    15  H    3.164468   1.897956   2.173179   0.970629   4.447731
                   11         12         13         14         15
    11  H    0.000000
    12  H    2.443049   0.000000
    13  H    4.227148   2.443724   0.000000
    14  H    4.881922   4.212146   2.404918   0.000000
    15  H    6.385111   6.893695   5.721295   3.409354   0.000000
 Stoichiometry    C7H6O2
 Framework group  C1[X(C7H6O2)]
 Deg. of freedom    39
 Full point group                 C1      NOp   1
 Largest Abelian subgroup         C1      NOp   1
 Largest concise Abelian subgroup C1      NOp   1
                         Standard orientation:                         
 ---------------------------------------------------------------------
 Center     Atomic      Atomic             Coordinates (Angstroms)
 Number     Number       Type             X           Y           Z
 ---------------------------------------------------------------------
      1          6           0        0.525844    1.173708   -0.000011
      2          6           0        1.867063    1.108433   -0.000002
      3          6           0        2.485279   -0.081619    0.000002
      4          6           0        1.754392   -1.205810   -0.000002
      5          6           0        0.413324   -1.139140   -0.000013
      6          6           0       -0.218216    0.050492   -0.000013
      7          6           0       -1.582283    0.098179   -0.000003
      8          8           0       -2.206412    1.138146    0.000016
      9          8           0       -2.347158   -1.022286   -0.000001
     10          1           0        0.068101    2.176956   -0.000005
     11          1           0        2.465452    2.035272   -0.000004
     12          1           0        3.586762   -0.135247    0.000064
     13          1           0        2.259067   -2.186835    0.000061
     14          1           0       -0.143932   -2.090777   -0.000001
     15          1           0       -3.279313   -0.751718    0.000018
 ---------------------------------------------------------------------
 Rotational constants (GHZ):           4.1874157           1.2965803           0.9900300
 Standard basis: Aug-CC-pVTZ (5D, 7F)
 There are   645 symmetry adapted cartesian basis functions of A   symmetry.
 There are   552 symmetry adapted basis functions of A   symmetry.
   552 basis functions,   810 primitive gaussians,   645 cartesian basis functions
    32 alpha electrons       32 beta electrons
       nuclear repulsion energy       416.8938629377 Hartrees.
 NAtoms=   15 NActive=   15 NUniq=   15 SFac= 1.00D+00 NAtFMM=   60 NAOKFM=F Big=F
 Integral buffers will be    131072 words long.
 Raffenetti 2 integral format.
 Two-electron integral symmetry is turned on.
 One-electron integrals computed using PRISM.
 NBasis=   552 RedAO= T EigKep=  1.05D-06  NBF=   552
 NBsUse=   550 1.00D-06 EigRej=  6.99D-07 NBFU=   550
 ExpMin= 2.53D-02 ExpMax= 1.53D+04 ExpMxC= 5.22D+02 IAcc=3 IRadAn=         5 AccDes= 0.00D+00
 Harris functional with IExCor= 1009 and IRadAn=       5 diagonalized for initial guess.
 HarFok:  IExCor= 1009 AccDes= 0.00D+00 IRadAn=         5 IDoV= 1 UseB2=F ITyADJ=14
 ICtDFT=  3500011 ScaDFX=  1.000000  1.000000  1.000000  1.000000
 FoFCou: FMM=F IPFlag=           0 FMFlag=      100000 FMFlg1=           0
         NFxFlg=           0 DoJE=T BraDBF=F KetDBF=T FulRan=T
         wScrn=  0.000000 ICntrl=       500 IOpCl=  0 I1Cent=   200000004 NGrid=           0
         NMat0=    1 NMatS0=      1 NMatT0=    0 NMatD0=    1 NMtDS0=    0 NMtDT0=    0
 Petite list used in FoFCou.
 Requested convergence on RMS density matrix=1.00D-08 within 128 cycles.
 Requested convergence on MAX density matrix=1.00D-06.
 Requested convergence on             energy=1.00D-06.
 No special actions if energy rises.
 SCF Done:  E(RM062X) =  -420.788630530     A.U. after   13 cycles
            NFock= 13  Conv=0.88D-08     -V/T= 2.0030

 **********************************************************************

            Population analysis using the SCF Density.

 **********************************************************************

 Orbital symmetries:
       Occupied  (A) (A) (A) (A) (A) (A) (A) (A) (A) (A) (A) (A)
                 (A) (A) (A) (A) (A) (A) (A) (A) (A) (A) (A) (A)
                 (A) (A) (A) (A) (A) (A) (A) (A)
       Virtual   (A) (A) (A) (A) (A) (A) (A) (A) (A) (A) (A) (A)
                 (A) (A) (A) (A) (A) (A) (A) (A) (A) (A) (A) (A)
                 (A) (A) (A) (A) (A) (A) (A) (A) (A) (A) (A) (A)
                 (A) (A) (A) (A) (A) (A) (A) (A) (A) (A) (A) (A)
                 (A) (A) (A) (A) (A) (A) (A) (A) (A) (A) (A) (A)
                 (A) (A) (A) (A) (A) (A) (A) (A) (A) (A) (A) (A)
                 (A) (A) (A) (A) (A) (A) (A) (A) (A) (A) (A) (A)
                 (A) (A) (A) (A) (A) (A) (A) (A) (A) (A) (A) (A)
                 (A) (A) (A) (A) (A) (A) (A) (A) (A) (A) (A) (A)
                 (A) (A) (A) (A) (A) (A) (A) (A) (A) (A) (A) (A)
                 (A) (A) (A) (A) (A) (A) (A) (A) (A) (A) (A) (A)
                 (A) (A) (A) (A) (A) (A) (A) (A) (A) (A) (A) (A)
                 (A) (A) (A) (A) (A) (A) (A) (A) (A) (A) (A) (A)
                 (A) (A) (A) (A) (A) (A) (A) (A) (A) (A) (A) (A)
                 (A) (A) (A) (A) (A) (A) (A) (A) (A) (A) (A) (A)
                 (A) (A) (A) (A) (A) (A) (A) (A) (A) (A) (A) (A)
                 (A) (A) (A) (A) (A) (A) (A) (A) (A) (A) (A) (A)
                 (A) (A) (A) (A) (A) (A) (A) (A) (A) (A) (A) (A)
                 (A) (A) (A) (A) (A) (A) (A) (A) (A) (A) (A) (A)
                 (A) (A) (A) (A) (A) (A) (A) (A) (A) (A) (A) (A)
                 (A) (A) (A) (A) (A) (A) (A) (A) (A) (A) (A) (A)
                 (A) (A) (A) (A) (A) (A) (A) (A) (A) (A) (A) (A)
                 (A) (A) (A) (A) (A) (A) (A) (A) (A) (A) (A) (A)
                 (A) (A) (A) (A) (A) (A) (A) (A) (A) (A) (A) (A)
                 (A) (A) (A) (A) (A) (A) (A) (A) (A) (A) (A) (A)
                 (A) (A) (A) (A) (A) (A) (A) (A) (A) (A) (A) (A)
                 (A) (A) (A) (A) (A) (A) (A) (A) (A) (A) (A) (A)
                 (A) (A) (A) (A) (A) (A) (A) (A) (A) (A) (A) (A)
                 (A) (A) (A) (A) (A) (A) (A) (A) (A) (A) (A) (A)
                 (A) (A) (A) (A) (A) (A) (A) (A) (A) (A) (A) (A)
                 (A) (A) (A) (A) (A) (A) (A) (A) (A) (A) (A) (A)
                 (A) (A) (A) (A) (A) (A) (A) (A) (A) (A) (A) (A)
                 (A) (A) (A) (A) (A) (A) (A) (A) (A) (A) (A) (A)
                 (A) (A) (A) (A) (A) (A) (A) (A) (A) (A) (A) (A)
                 (A) (A) (A) (A) (A) (A) (A) (A) (A) (A) (A) (A)
                 (A) (A) (A) (A) (A) (A) (A) (A) (A) (A) (A) (A)
                 (A) (A) (A) (A) (A) (A) (A) (A) (A) (A) (A) (A)
                 (A) (A) (A) (A) (A) (A) (A) (A) (A) (A) (A) (A)
                 (A) (A) (A) (A) (A) (A) (A) (A) (A) (A) (A) (A)
                 (A) (A) (A) (A) (A) (A) (A) (A) (A) (A) (A) (A)
                 (A) (A) (A) (A) (A) (A) (A) (A) (A) (A) (A) (A)
                 (A) (A) (A) (A) (A) (A) (A) (A) (A) (A) (A) (A)
                 (A) (A) (A) (A) (A) (A) (A) (A) (A) (A) (A) (A)
                 (A) (A)
 The electronic state is 1-A.
 Alpha  occ. eigenvalues --  -19.66605 -19.60530 -10.67013 -10.55471 -10.55430
 Alpha  occ. eigenvalues --  -10.55404 -10.55224 -10.54816 -10.54802  -1.23783
 Alpha  occ. eigenvalues --   -1.12826  -1.01456  -0.90636  -0.87479  -0.77387
 Alpha  occ. eigenvalues --   -0.71628  -0.68095  -0.63629  -0.58345  -0.56252
 Alpha  occ. eigenvalues --   -0.54775  -0.54704  -0.51933  -0.50456  -0.48189
 Alpha  occ. eigenvalues --   -0.47293  -0.43071  -0.41320  -0.39655  -0.35499
 Alpha  occ. eigenvalues --   -0.33808  -0.33386
 Alpha virt. eigenvalues --   -0.03284  -0.00861   0.00176   0.00675   0.01314
 Alpha virt. eigenvalues --    0.01909   0.02823   0.03061   0.03699   0.05136
 Alpha virt. eigenvalues --    0.05665   0.06141   0.06259   0.07231   0.07846
 Alpha virt. eigenvalues --    0.07904   0.08070   0.08620   0.09375   0.09447
 Alpha virt. eigenvalues --    0.10007   0.10194   0.10541   0.11259   0.11352
 Alpha virt. eigenvalues --    0.11577   0.11590   0.12880   0.13313   0.14307
 Alpha virt. eigenvalues --    0.16247   0.16405   0.16894   0.17593   0.18565
 Alpha virt. eigenvalues --    0.19343   0.19686   0.20214   0.20423   0.20718
 Alpha virt. eigenvalues --    0.20898   0.21532   0.21687   0.22968   0.23087
 Alpha virt. eigenvalues --    0.23640   0.24066   0.24149   0.24217   0.24568
 Alpha virt. eigenvalues --    0.26015   0.26043   0.26879   0.27146   0.27962
 Alpha virt. eigenvalues --    0.29221   0.29716   0.30031   0.30973   0.31133
 Alpha virt. eigenvalues --    0.32429   0.32594   0.33889   0.33940   0.34306
 Alpha virt. eigenvalues --    0.34815   0.34971   0.35742   0.35963   0.36747
 Alpha virt. eigenvalues --    0.37102   0.37538   0.37765   0.38504   0.38648
 Alpha virt. eigenvalues --    0.39183   0.39890   0.40196   0.41063   0.41261
 Alpha virt. eigenvalues --    0.41730   0.42577   0.43153   0.43668   0.44407
 Alpha virt. eigenvalues --    0.44565   0.44772   0.45661   0.45757   0.46343
 Alpha virt. eigenvalues --    0.48986   0.49470   0.50167   0.51863   0.52653
 Alpha virt. eigenvalues --    0.53372   0.53742   0.53931   0.55451   0.55626
 Alpha virt. eigenvalues --    0.56511   0.56794   0.56900   0.57422   0.57888
 Alpha virt. eigenvalues --    0.60482   0.61437   0.62174   0.62866   0.62889
 Alpha virt. eigenvalues --    0.64826   0.65058   0.65739   0.66251   0.67328
 Alpha virt. eigenvalues --    0.68572   0.68771   0.70114   0.70507   0.71723
 Alpha virt. eigenvalues --    0.72692   0.73031   0.73899   0.74701   0.74906
 Alpha virt. eigenvalues --    0.75547   0.75776   0.76465   0.77247   0.77343
 Alpha virt. eigenvalues --    0.77556   0.78657   0.78665   0.79569   0.79635
 Alpha virt. eigenvalues --    0.80566   0.81456   0.81681   0.83866   0.84362
 Alpha virt. eigenvalues --    0.84564   0.85185   0.85452   0.86094   0.86260
 Alpha virt. eigenvalues --    0.87204   0.87808   0.88589   0.88683   0.89630
 Alpha virt. eigenvalues --    0.90128   0.90845   0.92101   0.93134   0.93668
 Alpha virt. eigenvalues --    0.94169   0.95144   0.95737   0.96185   0.96282
 Alpha virt. eigenvalues --    0.96405   0.97471   0.98482   0.99424   0.99499
 Alpha virt. eigenvalues --    1.00949   1.01484   1.02156   1.02579   1.03380
 Alpha virt. eigenvalues --    1.04615   1.04991   1.05427   1.06661   1.07074
 Alpha virt. eigenvalues --    1.07525   1.08673   1.10018   1.10615   1.11638
 Alpha virt. eigenvalues --    1.11745   1.12116   1.13942   1.14478   1.15148
 Alpha virt. eigenvalues --    1.15831   1.18404   1.18852   1.20047   1.20870
 Alpha virt. eigenvalues --    1.21403   1.21879   1.21934   1.23570   1.25262
 Alpha virt. eigenvalues --    1.26323   1.26990   1.29542   1.30578   1.31941
 Alpha virt. eigenvalues --    1.33005   1.33839   1.34310   1.34367   1.35522
 Alpha virt. eigenvalues --    1.37862   1.38330   1.38983   1.39121   1.40284
 Alpha virt. eigenvalues --    1.42161   1.43281   1.44336   1.47570   1.49569
 Alpha virt. eigenvalues --    1.49979   1.50524   1.51783   1.51934   1.53001
 Alpha virt. eigenvalues --    1.53435   1.54302   1.54809   1.55584   1.56678
 Alpha virt. eigenvalues --    1.57298   1.59088   1.62015   1.64703   1.65065
 Alpha virt. eigenvalues --    1.66105   1.66171   1.66717   1.67932   1.68336
 Alpha virt. eigenvalues --    1.68482   1.69946   1.70737   1.71836   1.72158
 Alpha virt. eigenvalues --    1.73022   1.78187   1.78285   1.80417   1.80628
 Alpha virt. eigenvalues --    1.81558   1.82796   1.83451   1.85178   1.86093
 Alpha virt. eigenvalues --    1.87582   1.88192   1.88514   1.88555   1.90690
 Alpha virt. eigenvalues --    1.91153   1.91925   1.93475   1.94685   1.95248
 Alpha virt. eigenvalues --    1.96289   1.96856   2.00326   2.00692   2.02264
 Alpha virt. eigenvalues --    2.04165   2.05344   2.06835   2.08884   2.10131
 Alpha virt. eigenvalues --    2.11726   2.12282   2.14701   2.15044   2.15611
 Alpha virt. eigenvalues --    2.16547   2.20580   2.22665   2.22732   2.24848
 Alpha virt. eigenvalues --    2.26260   2.26809   2.29347   2.29952   2.31367
 Alpha virt. eigenvalues --    2.33821   2.36600   2.37417   2.37873   2.39674
 Alpha virt. eigenvalues --    2.41200   2.42570   2.42793   2.46316   2.48035
 Alpha virt. eigenvalues --    2.50177   2.50667   2.52187   2.56458   2.57225
 Alpha virt. eigenvalues --    2.57772   2.58548   2.61022   2.65981   2.66989
 Alpha virt. eigenvalues --    2.67787   2.70727   2.70790   2.75530   2.77882
 Alpha virt. eigenvalues --    2.79067   2.81414   2.84214   2.85794   2.88806
 Alpha virt. eigenvalues --    2.89037   2.94738   2.95599   2.96508   2.96967
 Alpha virt. eigenvalues --    2.98281   2.99279   3.00060   3.01130   3.04246
 Alpha virt. eigenvalues --    3.06573   3.06941   3.10181   3.11162   3.12740
 Alpha virt. eigenvalues --    3.12750   3.13749   3.14551   3.14822   3.15401
 Alpha virt. eigenvalues --    3.18175   3.20026   3.21340   3.21787   3.24104
 Alpha virt. eigenvalues --    3.25209   3.26270   3.26667   3.28729   3.29449
 Alpha virt. eigenvalues --    3.29515   3.32637   3.36913   3.37706   3.38444
 Alpha virt. eigenvalues --    3.40238   3.40452   3.41632   3.44500   3.46811
 Alpha virt. eigenvalues --    3.47379   3.49172   3.51656   3.53147   3.53358
 Alpha virt. eigenvalues --    3.55156   3.56418   3.57182   3.59234   3.60145
 Alpha virt. eigenvalues --    3.60568   3.60711   3.62305   3.63918   3.65081
 Alpha virt. eigenvalues --    3.66292   3.67553   3.69736   3.72817   3.74043
 Alpha virt. eigenvalues --    3.75917   3.76884   3.79062   3.79886   3.81492
 Alpha virt. eigenvalues --    3.82499   3.82836   3.83482   3.85502   3.86323
 Alpha virt. eigenvalues --    3.88607   3.89637   3.90124   3.91686   3.94048
 Alpha virt. eigenvalues --    3.95333   3.96137   3.98329   3.98852   3.99254
 Alpha virt. eigenvalues --    4.01333   4.01452   4.03597   4.04494   4.06994
 Alpha virt. eigenvalues --    4.07136   4.11079   4.12176   4.12874   4.13214
 Alpha virt. eigenvalues --    4.15308   4.15904   4.18878   4.20076   4.21909
 Alpha virt. eigenvalues --    4.22171   4.24245   4.25708   4.30045   4.32020
 Alpha virt. eigenvalues --    4.34597   4.36663   4.38975   4.40443   4.41414
 Alpha virt. eigenvalues --    4.43187   4.44131   4.45194   4.52044   4.53425
 Alpha virt. eigenvalues --    4.57516   4.58548   4.62237   4.62256   4.63227
 Alpha virt. eigenvalues --    4.64192   4.67454   4.68110   4.68681   4.69001
 Alpha virt. eigenvalues --    4.72014   4.73398   4.75930   4.77129   4.77575
 Alpha virt. eigenvalues --    4.78419   4.80507   4.82061   4.85613   4.87352
 Alpha virt. eigenvalues --    4.89310   4.92778   4.97068   4.98292   5.00031
 Alpha virt. eigenvalues --    5.02303   5.02676   5.03697   5.04021   5.06271
 Alpha virt. eigenvalues --    5.08944   5.09305   5.11847   5.22047   5.24642
 Alpha virt. eigenvalues --    5.31269   5.34161   5.39965   5.42545   5.46605
 Alpha virt. eigenvalues --    5.46677   5.52908   5.59668   5.71763   5.74646
 Alpha virt. eigenvalues --    5.81776   5.87890   5.87972   5.92289   5.94691
 Alpha virt. eigenvalues --    6.01796   6.07626   6.20279   6.24306   6.26050
 Alpha virt. eigenvalues --    6.30416   6.37416   6.38005   6.39811   6.43582
 Alpha virt. eigenvalues --    6.48741   6.52800   6.55379   6.57767   6.65441
 Alpha virt. eigenvalues --    6.71808   6.75565   6.79215   6.80980   6.82861
 Alpha virt. eigenvalues --    6.87775   6.88069   6.91701   7.03787   7.08501
 Alpha virt. eigenvalues --    7.10520   7.14320   7.18838   7.33657   7.40979
 Alpha virt. eigenvalues --    7.52739   7.70970   7.89542   8.04611  15.39751
 Alpha virt. eigenvalues --   15.69162  16.94671  17.69240  17.91105  18.74942
 Alpha virt. eigenvalues --   19.98777  20.02877  20.51147
          Condensed to atoms (all electrons):
               1          2          3          4          5          6
     1  C    8.412353  -0.066165   0.213884  -0.681029   0.103873  -0.987974
     2  C   -0.066165   6.976220  -0.191411   0.266961  -0.668607  -0.037510
     3  C    0.213884  -0.191411   6.603012  -0.191877   0.120104  -0.520861
     4  C   -0.681029   0.266961  -0.191877   7.122051  -0.162877  -0.101407
     5  C    0.103873  -0.668607   0.120104  -0.162877   8.022838  -0.657107
     6  C   -0.987974  -0.037510  -0.520861  -0.101407  -0.657107   6.912640
     7  C   -0.303543  -0.008320   0.108916   0.133418  -0.402387  -0.572026
     8  O    0.124643  -0.058288  -0.002212  -0.055650  -0.018668  -0.177112
     9  O    0.019688  -0.026260   0.003118  -0.050003   0.031621  -0.016109
    10  H    0.373474  -0.388120   0.024428  -0.003040   0.061336  -0.118251
    11  H   -0.196143   0.575165  -0.253608   0.030217  -0.009262   0.042373
    12  H    0.073611  -0.279723   0.536030  -0.249851   0.082263  -0.042109
    13  H    0.006088   0.037574  -0.247240   0.588251  -0.208865   0.018165
    14  H    0.081295  -0.015817   0.051722  -0.419174   0.377006  -0.125992
    15  H   -0.058664  -0.002446  -0.001567   0.025586   0.027385   0.017963
               7          8          9         10         11         12
     1  C   -0.303543   0.124643   0.019688   0.373474  -0.196143   0.073611
     2  C   -0.008320  -0.058288  -0.026260  -0.388120   0.575165  -0.279723
     3  C    0.108916  -0.002212   0.003118   0.024428  -0.253608   0.536030
     4  C    0.133418  -0.055650  -0.050003  -0.003040   0.030217  -0.249851
     5  C   -0.402387  -0.018668   0.031621   0.061336  -0.009262   0.082263
     6  C   -0.572026  -0.177112  -0.016109  -0.118251   0.042373  -0.042109
     7  C    6.917829   0.026039   0.019519   0.078435  -0.001827  -0.001030
     8  O    0.026039   9.316839  -0.118371  -0.030361  -0.003557   0.000915
     9  O    0.019519  -0.118371   8.606794   0.005611  -0.001032   0.001012
    10  H    0.078435  -0.030361   0.005611   0.732754  -0.022855  -0.000022
    11  H   -0.001827  -0.003557  -0.001032  -0.022855   0.658760  -0.026300
    12  H   -0.001030   0.000915   0.001012  -0.000022  -0.026300   0.654780
    13  H    0.008046  -0.001701  -0.003303   0.001213  -0.001610  -0.019904
    14  H   -0.014031   0.015037  -0.051800  -0.007660   0.000393  -0.002804
    15  H    0.056078  -0.107050   0.151336  -0.000817   0.000291  -0.000172
              13         14         15
     1  C    0.006088   0.081295  -0.058664
     2  C    0.037574  -0.015817  -0.002446
     3  C   -0.247240   0.051722  -0.001567
     4  C    0.588251  -0.419174   0.025586
     5  C   -0.208865   0.377006   0.027385
     6  C    0.018165  -0.125992   0.017963
     7  C    0.008046  -0.014031   0.056078
     8  O   -0.001701   0.015037  -0.107050
     9  O   -0.003303  -0.051800   0.151336
    10  H    0.001213  -0.007660  -0.000817
    11  H   -0.001610   0.000393   0.000291
    12  H   -0.019904  -0.002804  -0.000172
    13  H    0.649753  -0.020792   0.000952
    14  H   -0.020792   0.810615  -0.002469
    15  H    0.000952  -0.002469   0.594178
 Mulliken charges:
               1
     1  C   -1.115391
     2  C   -0.113252
     3  C   -0.252438
     4  C   -0.251575
     5  C   -0.698653
     6  C    2.365317
     7  C   -0.045116
     8  O   -0.910504
     9  O   -0.571822
    10  H    0.293873
    11  H    0.208995
    12  H    0.273305
    13  H    0.193373
    14  H    0.324471
    15  H    0.299416
 Sum of Mulliken charges =   0.00000
 Mulliken charges with hydrogens summed into heavy atoms:
               1
     1  C   -0.821517
     2  C    0.095743
     3  C    0.020867
     4  C   -0.058202
     5  C   -0.374183
     6  C    2.365317
     7  C   -0.045116
     8  O   -0.910504
     9  O   -0.272405
 Electronic spatial extent (au):  <R**2>=           1118.1714
 Charge=              0.0000 electrons
 Dipole moment (field-independent basis, Debye):
    X=              2.1235    Y=             -1.3092    Z=              0.0001  Tot=              2.4946
 Quadrupole moment (field-independent basis, Debye-Ang):
   XX=            -45.2112   YY=            -50.9096   ZZ=            -53.9240
   XY=              4.6698   XZ=              0.0002   YZ=             -0.0002
 Traceless Quadrupole moment (field-independent basis, Debye-Ang):
   XX=              4.8038   YY=             -0.8947   ZZ=             -3.9091
   XY=              4.6698   XZ=              0.0002   YZ=             -0.0002
 Octapole moment (field-independent basis, Debye-Ang**2):
  XXX=            -20.5227  YYY=             -1.4083  ZZZ=              0.0002  XYY=              9.6826
  XXY=            -15.2480  XXZ=              0.0012  XZZ=            -10.4477  YZZ=              0.3074
  YYZ=              0.0003  XYZ=             -0.0001
 Hexadecapole moment (field-independent basis, Debye-Ang**3):
 XXXX=           -845.5477 YYYY=           -352.6060 ZZZZ=            -56.7696 XXXY=             55.2628
 XXXZ=              0.0022 YYYX=              6.4862 YYYZ=             -0.0009 ZZZX=              0.0001
 ZZZY=             -0.0001 XXYY=           -239.7273 XXZZ=           -190.0604 YYZZ=            -78.1902
 XXYZ=             -0.0015 YYXZ=              0.0007 ZZXY=              0.3261
 N-N= 4.168938629377D+02 E-N=-1.816596472949D+03  KE= 4.195418969265D+02
 ******************************Gaussian NBO Version 3.1******************************
             N A T U R A L   A T O M I C   O R B I T A L   A N D
          N A T U R A L   B O N D   O R B I T A L   A N A L Y S I S
 ******************************Gaussian NBO Version 3.1******************************
       /RESON  / : Allow strongly delocalized NBO set

 Analyzing the SCF density

 Job title: H_benzoic-acid                                                  

 Storage needed:    916440 in NPA,   1220743 in NBO (********** available)
 GSVD:  LWork=        8262 too small for GESVD, short by      581175 words or      581175 for optimal perf.


 NATURAL POPULATIONS:  Natural atomic orbital occupancies 
                                                          
   NAO  Atom  No  lang   Type(AO)    Occupancy      Energy
 ----------------------------------------------------------
     1    C    1  S      Cor( 1S)     1.99909     -10.38499
     2    C    1  S      Val( 2S)     0.94228      -0.18160
     3    C    1  S      Ryd( 4S)     0.00152       1.93156
     4    C    1  S      Ryd( 5S)     0.00010       2.81907
     5    C    1  S      Ryd( 3S)     0.00002       1.78257
     6    C    1  px     Val( 2p)     1.07712      -0.06567
     7    C    1  px     Ryd( 4p)     0.00383       1.94904
     8    C    1  px     Ryd( 5p)     0.00009       2.10752
     9    C    1  px     Ryd( 3p)     0.00008       1.22464
    10    C    1  py     Val( 2p)     1.14846      -0.07157
    11    C    1  py     Ryd( 4p)     0.00503       1.82185
    12    C    1  py     Ryd( 5p)     0.00004       2.08660
    13    C    1  py     Ryd( 3p)     0.00006       1.52318
    14    C    1  pz     Val( 2p)     0.93426      -0.11942
    15    C    1  pz     Ryd( 4p)     0.00072       1.03774
    16    C    1  pz     Ryd( 5p)     0.00006       1.32769
    17    C    1  pz     Ryd( 3p)     0.00003       0.91692
    18    C    1  dxy    Ryd( 4d)     0.00177       2.97027
    19    C    1  dxy    Ryd( 5d)     0.00016       4.16330
    20    C    1  dxy    Ryd( 3d)     0.00007       2.80355
    21    C    1  dxz    Ryd( 3d)     0.00041       1.47228
    22    C    1  dxz    Ryd( 5d)     0.00003       3.25270
    23    C    1  dxz    Ryd( 4d)     0.00003       1.67332
    24    C    1  dyz    Ryd( 4d)     0.00025       1.38105
    25    C    1  dyz    Ryd( 5d)     0.00009       3.26793
    26    C    1  dyz    Ryd( 3d)     0.00003       1.36343
    27    C    1  dx2y2  Ryd( 4d)     0.00203       3.25484
    28    C    1  dx2y2  Ryd( 5d)     0.00020       4.33310
    29    C    1  dx2y2  Ryd( 3d)     0.00008       2.72851
    30    C    1  dz2    Ryd( 3d)     0.00093       1.87844
    31    C    1  dz2    Ryd( 4d)     0.00011       3.90831
    32    C    1  dz2    Ryd( 5d)     0.00006       4.51452
    33    C    1  f(0)   Ryd( 4f)     0.00008       1.47359
    34    C    1  f(0)   Ryd( 5f)     0.00011       3.38094
    35    C    1  f(C1)  Ryd( 4f)     0.00040       1.98129
    36    C    1  f(C1)  Ryd( 5f)     0.00026       3.64236
    37    C    1  f(S1)  Ryd( 4f)     0.00046       1.78307
    38    C    1  f(S1)  Ryd( 5f)     0.00017       3.51322
    39    C    1  f(C2)  Ryd( 4f)     0.00022       1.57175
    40    C    1  f(C2)  Ryd( 5f)     0.00004       3.38942
    41    C    1  f(S2)  Ryd( 4f)     0.00020       1.49354
    42    C    1  f(S2)  Ryd( 5f)     0.00003       3.42707
    43    C    1  f(C3)  Ryd( 4f)     0.00043       2.72101
    44    C    1  f(C3)  Ryd( 5f)     0.00014       4.00652
    45    C    1  f(S3)  Ryd( 4f)     0.00111       2.02235
    46    C    1  f(S3)  Ryd( 5f)     0.00021       4.22748
 
    47    C    2  S      Cor( 1S)     1.99912     -10.38024
    48    C    2  S      Val( 2S)     0.94749      -0.19402
    49    C    2  S      Ryd( 3S)     0.00144       1.87682
    50    C    2  S      Ryd( 5S)     0.00006       2.82821
    51    C    2  S      Ryd( 4S)     0.00002       1.88410
    52    C    2  px     Val( 2p)     1.10031      -0.07496
    53    C    2  px     Ryd( 5p)     0.00431       1.73229
    54    C    2  px     Ryd( 3p)     0.00005       1.28122
    55    C    2  px     Ryd( 4p)     0.00002       1.39226
    56    C    2  py     Val( 2p)     1.14723      -0.08331
    57    C    2  py     Ryd( 5p)     0.00452       1.72471
    58    C    2  py     Ryd( 4p)     0.00002       1.60677
    59    C    2  py     Ryd( 3p)     0.00003       1.55662
    60    C    2  pz     Val( 2p)     0.99903      -0.12615
    61    C    2  pz     Ryd( 3p)     0.00071       1.02302
    62    C    2  pz     Ryd( 5p)     0.00001       1.13473
    63    C    2  pz     Ryd( 4p)     0.00002       1.06027
    64    C    2  dxy    Ryd( 3d)     0.00203       2.44796
    65    C    2  dxy    Ryd( 5d)     0.00020       3.55552
    66    C    2  dxy    Ryd( 4d)     0.00006       2.76581
    67    C    2  dxz    Ryd( 3d)     0.00039       1.43484
    68    C    2  dxz    Ryd( 5d)     0.00001       2.89228
    69    C    2  dxz    Ryd( 4d)     0.00001       1.60468
    70    C    2  dyz    Ryd( 3d)     0.00031       1.46032
    71    C    2  dyz    Ryd( 5d)     0.00004       2.90171
    72    C    2  dyz    Ryd( 4d)     0.00001       1.55842
    73    C    2  dx2y2  Ryd( 4d)     0.00215       3.29357
    74    C    2  dx2y2  Ryd( 5d)     0.00020       3.80512
    75    C    2  dx2y2  Ryd( 3d)     0.00005       2.00300
    76    C    2  dz2    Ryd( 3d)     0.00097       1.80543
    77    C    2  dz2    Ryd( 5d)     0.00006       4.12096
    78    C    2  dz2    Ryd( 4d)     0.00012       3.36967
    79    C    2  f(0)   Ryd( 5f)     0.00012       3.47002
    80    C    2  f(0)   Ryd( 4f)     0.00001       2.16560
    81    C    2  f(C1)  Ryd( 5f)     0.00024       3.74601
    82    C    2  f(C1)  Ryd( 4f)     0.00001       2.66852
    83    C    2  f(S1)  Ryd( 5f)     0.00024       3.70089
    84    C    2  f(S1)  Ryd( 4f)     0.00001       2.82498
    85    C    2  f(C2)  Ryd( 5f)     0.00001       3.57322
    86    C    2  f(C2)  Ryd( 4f)     0.00000       2.28445
    87    C    2  f(S2)  Ryd( 5f)     0.00002       3.65354
    88    C    2  f(S2)  Ryd( 4f)     0.00002       2.30725
    89    C    2  f(C3)  Ryd( 4f)     0.00014       4.23209
    90    C    2  f(C3)  Ryd( 5f)     0.00006       5.70509
    91    C    2  f(S3)  Ryd( 5f)     0.00008       4.35999
    92    C    2  f(S3)  Ryd( 4f)     0.00010       3.97446
 
    93    C    3  S      Cor( 1S)     1.99911     -10.38434
    94    C    3  S      Val( 2S)     0.95045      -0.20059
    95    C    3  S      Ryd( 4S)     0.00137       1.96208
    96    C    3  S      Ryd( 5S)     0.00006       2.76903
    97    C    3  S      Ryd( 3S)     0.00002       1.85625
    98    C    3  px     Val( 2p)     1.18015      -0.08902
    99    C    3  px     Ryd( 4p)     0.00553       1.66538
   100    C    3  px     Ryd( 3p)     0.00003       1.56508
   101    C    3  px     Ryd( 5p)     0.00001       1.73560
   102    C    3  py     Val( 2p)     1.06741      -0.07103
   103    C    3  py     Ryd( 5p)     0.00389       1.72966
   104    C    3  py     Ryd( 3p)     0.00001       1.17021
   105    C    3  py     Ryd( 4p)     0.00002       1.24078
   106    C    3  pz     Val( 2p)     0.95366      -0.12477
   107    C    3  pz     Ryd( 3p)     0.00064       1.01460
   108    C    3  pz     Ryd( 4p)     0.00001       1.01588
   109    C    3  pz     Ryd( 5p)     0.00000       1.14056
   110    C    3  dxy    Ryd( 4d)     0.00216       3.45469
   111    C    3  dxy    Ryd( 5d)     0.00022       3.82112
   112    C    3  dxy    Ryd( 3d)     0.00004       1.58150
   113    C    3  dxz    Ryd( 4d)     0.00030       1.40657
   114    C    3  dxz    Ryd( 5d)     0.00004       3.01874
   115    C    3  dxz    Ryd( 3d)     0.00002       1.27286
   116    C    3  dyz    Ryd( 3d)     0.00052       1.41715
   117    C    3  dyz    Ryd( 5d)     0.00000       2.95049
   118    C    3  dyz    Ryd( 4d)     0.00000       1.52655
   119    C    3  dx2y2  Ryd( 3d)     0.00192       2.18398
   120    C    3  dx2y2  Ryd( 5d)     0.00017       3.56981
   121    C    3  dx2y2  Ryd( 4d)     0.00005       2.80801
   122    C    3  dz2    Ryd( 3d)     0.00097       1.86344
   123    C    3  dz2    Ryd( 5d)     0.00005       4.10729
   124    C    3  dz2    Ryd( 4d)     0.00014       3.44253
   125    C    3  f(0)   Ryd( 5f)     0.00010       3.51716
   126    C    3  f(0)   Ryd( 4f)     0.00001       2.02397
   127    C    3  f(C1)  Ryd( 5f)     0.00018       3.70210
   128    C    3  f(C1)  Ryd( 4f)     0.00001       2.58963
   129    C    3  f(S1)  Ryd( 5f)     0.00025       3.77372
   130    C    3  f(S1)  Ryd( 4f)     0.00002       2.76562
   131    C    3  f(C2)  Ryd( 5f)     0.00001       3.68988
   132    C    3  f(C2)  Ryd( 4f)     0.00003       2.04011
   133    C    3  f(S2)  Ryd( 5f)     0.00001       3.60322
   134    C    3  f(S2)  Ryd( 4f)     0.00000       2.24989
   135    C    3  f(C3)  Ryd( 4f)     0.00014       4.32286
   136    C    3  f(C3)  Ryd( 5f)     0.00007       4.97448
   137    C    3  f(S3)  Ryd( 5f)     0.00006       4.38784
   138    C    3  f(S3)  Ryd( 4f)     0.00014       3.81335
 
   139    C    4  S      Cor( 1S)     1.99912     -10.37986
   140    C    4  S      Val( 2S)     0.94643      -0.19351
   141    C    4  S      Ryd( 4S)     0.00150       1.87510
   142    C    4  S      Ryd( 5S)     0.00006       2.85241
   143    C    4  S      Ryd( 3S)     0.00002       1.82873
   144    C    4  px     Val( 2p)     1.09097      -0.07396
   145    C    4  px     Ryd( 5p)     0.00415       1.73720
   146    C    4  px     Ryd( 3p)     0.00005       1.19084
   147    C    4  px     Ryd( 4p)     0.00002       1.38784
   148    C    4  py     Val( 2p)     1.15749      -0.08528
   149    C    4  py     Ryd( 5p)     0.00485       1.71995
   150    C    4  py     Ryd( 3p)     0.00003       1.59672
   151    C    4  py     Ryd( 4p)     0.00003       1.62899
   152    C    4  pz     Val( 2p)     1.00059      -0.12647
   153    C    4  pz     Ryd( 3p)     0.00078       1.02021
   154    C    4  pz     Ryd( 4p)     0.00001       1.08465
   155    C    4  pz     Ryd( 5p)     0.00002       1.09701
   156    C    4  dxy    Ryd( 4d)     0.00206       2.63965
   157    C    4  dxy    Ryd( 5d)     0.00023       3.67104
   158    C    4  dxy    Ryd( 3d)     0.00007       2.50152
   159    C    4  dxz    Ryd( 3d)     0.00034       1.43558
   160    C    4  dxz    Ryd( 5d)     0.00001       2.94200
   161    C    4  dxz    Ryd( 4d)     0.00002       1.56360
   162    C    4  dyz    Ryd( 3d)     0.00029       1.45318
   163    C    4  dyz    Ryd( 5d)     0.00004       2.96324
   164    C    4  dyz    Ryd( 4d)     0.00001       1.46559
   165    C    4  dx2y2  Ryd( 4d)     0.00207       3.12813
   166    C    4  dx2y2  Ryd( 5d)     0.00018       3.85365
   167    C    4  dx2y2  Ryd( 3d)     0.00005       2.05058
   168    C    4  dz2    Ryd( 3d)     0.00098       1.81378
   169    C    4  dz2    Ryd( 5d)     0.00006       4.09162
   170    C    4  dz2    Ryd( 4d)     0.00012       3.37157
   171    C    4  f(0)   Ryd( 5f)     0.00012       3.47049
   172    C    4  f(0)   Ryd( 4f)     0.00001       2.16322
   173    C    4  f(C1)  Ryd( 5f)     0.00025       3.76015
   174    C    4  f(C1)  Ryd( 4f)     0.00001       2.70322
   175    C    4  f(S1)  Ryd( 5f)     0.00022       3.69442
   176    C    4  f(S1)  Ryd( 4f)     0.00002       2.79236
   177    C    4  f(C2)  Ryd( 5f)     0.00001       3.59211
   178    C    4  f(C2)  Ryd( 4f)     0.00001       2.24136
   179    C    4  f(S2)  Ryd( 5f)     0.00002       3.63338
   180    C    4  f(S2)  Ryd( 4f)     0.00002       2.34086
   181    C    4  f(C3)  Ryd( 4f)     0.00014       4.23063
   182    C    4  f(C3)  Ryd( 5f)     0.00005       5.72991
   183    C    4  f(S3)  Ryd( 5f)     0.00007       4.36222
   184    C    4  f(S3)  Ryd( 4f)     0.00011       3.96198
 
   185    C    5  S      Cor( 1S)     1.99910     -10.38542
   186    C    5  S      Val( 2S)     0.94071      -0.18315
   187    C    5  S      Ryd( 4S)     0.00133       1.92511
   188    C    5  S      Ryd( 5S)     0.00011       2.93250
   189    C    5  S      Ryd( 3S)     0.00002       1.90684
   190    C    5  px     Val( 2p)     1.09502      -0.07414
   191    C    5  px     Ryd( 4p)     0.00365       1.96286
   192    C    5  px     Ryd( 5p)     0.00010       2.37753
   193    C    5  px     Ryd( 3p)     0.00008       1.05614
   194    C    5  py     Val( 2p)     1.13322      -0.07039
   195    C    5  py     Ryd( 4p)     0.00464       1.82013
   196    C    5  py     Ryd( 5p)     0.00006       2.36082
   197    C    5  py     Ryd( 3p)     0.00004       1.20994
   198    C    5  pz     Val( 2p)     0.94716      -0.12379
   199    C    5  pz     Ryd( 4p)     0.00084       1.03095
   200    C    5  pz     Ryd( 5p)     0.00007       1.56344
   201    C    5  pz     Ryd( 3p)     0.00004       0.69421
   202    C    5  dxy    Ryd( 3d)     0.00170       2.66933
   203    C    5  dxy    Ryd( 5d)     0.00013       3.93587
   204    C    5  dxy    Ryd( 4d)     0.00008       3.34915
   205    C    5  dxz    Ryd( 3d)     0.00056       1.47741
   206    C    5  dxz    Ryd( 5d)     0.00004       3.15782
   207    C    5  dxz    Ryd( 4d)     0.00004       1.78453
   208    C    5  dyz    Ryd( 3d)     0.00029       1.36399
   209    C    5  dyz    Ryd( 5d)     0.00008       3.20737
   210    C    5  dyz    Ryd( 4d)     0.00002       1.48325
   211    C    5  dx2y2  Ryd( 4d)     0.00198       3.46700
   212    C    5  dx2y2  Ryd( 5d)     0.00019       4.27017
   213    C    5  dx2y2  Ryd( 3d)     0.00008       2.69455
   214    C    5  dz2    Ryd( 3d)     0.00097       1.82025
   215    C    5  dz2    Ryd( 4d)     0.00012       3.93414
   216    C    5  dz2    Ryd( 5d)     0.00006       4.55164
   217    C    5  f(0)   Ryd( 4f)     0.00012       1.51100
   218    C    5  f(0)   Ryd( 5f)     0.00009       3.34272
   219    C    5  f(C1)  Ryd( 4f)     0.00048       2.01607
   220    C    5  f(C1)  Ryd( 5f)     0.00022       3.60234
   221    C    5  f(S1)  Ryd( 4f)     0.00047       1.82990
   222    C    5  f(S1)  Ryd( 5f)     0.00016       3.47480
   223    C    5  f(C2)  Ryd( 4f)     0.00027       1.58093
   224    C    5  f(C2)  Ryd( 5f)     0.00004       3.36631
   225    C    5  f(S2)  Ryd( 4f)     0.00018       1.55186
   226    C    5  f(S2)  Ryd( 5f)     0.00004       3.38498
   227    C    5  f(C3)  Ryd( 4f)     0.00041       2.72268
   228    C    5  f(C3)  Ryd( 5f)     0.00013       3.95159
   229    C    5  f(S3)  Ryd( 4f)     0.00105       2.07868
   230    C    5  f(S3)  Ryd( 5f)     0.00023       4.24522
 
   231    C    6  S      Cor( 1S)     1.99883     -10.37105
   232    C    6  S      Val( 2S)     0.88769      -0.11622
   233    C    6  S      Ryd( 3S)     0.00110       2.11875
   234    C    6  S      Ryd( 4S)     0.00008       2.83853
   235    C    6  S      Ryd( 5S)     0.00002       3.68602
   236    C    6  px     Val( 2p)     1.10187      -0.10732
   237    C    6  px     Ryd( 4p)     0.00593       2.34821
   238    C    6  px     Ryd( 5p)     0.00007       2.37127
   239    C    6  px     Ryd( 3p)     0.00008       0.94951
   240    C    6  py     Val( 2p)     1.14096      -0.10477
   241    C    6  py     Ryd( 4p)     0.00492       2.15152
   242    C    6  py     Ryd( 5p)     0.00009       2.20227
   243    C    6  py     Ryd( 3p)     0.00003       0.90318
   244    C    6  pz     Val( 2p)     1.07089      -0.13577
   245    C    6  pz     Ryd( 4p)     0.00129       0.94321
   246    C    6  pz     Ryd( 5p)     0.00013       1.99638
   247    C    6  pz     Ryd( 3p)     0.00001       0.55607
   248    C    6  dxy    Ryd( 3d)     0.00060       2.81446
   249    C    6  dxy    Ryd( 4d)     0.00041       3.66782
   250    C    6  dxy    Ryd( 5d)     0.00005       5.73002
   251    C    6  dxz    Ryd( 3d)     0.00015       1.50347
   252    C    6  dxz    Ryd( 5d)     0.00012       3.01986
   253    C    6  dxz    Ryd( 4d)     0.00008       2.20566
   254    C    6  dyz    Ryd( 3d)     0.00063       1.26788
   255    C    6  dyz    Ryd( 5d)     0.00010       2.91404
   256    C    6  dyz    Ryd( 4d)     0.00003       2.49620
   257    C    6  dx2y2  Ryd( 3d)     0.00284       2.76494
   258    C    6  dx2y2  Ryd( 4d)     0.00016       3.73479
   259    C    6  dx2y2  Ryd( 5d)     0.00001       5.13356
   260    C    6  dz2    Ryd( 3d)     0.00106       1.64981
   261    C    6  dz2    Ryd( 4d)     0.00017       4.04420
   262    C    6  dz2    Ryd( 5d)     0.00007       4.13830
   263    C    6  f(0)   Ryd( 4f)     0.00050       1.58146
   264    C    6  f(0)   Ryd( 5f)     0.00026       3.43263
   265    C    6  f(C1)  Ryd( 4f)     0.00040       2.05468
   266    C    6  f(C1)  Ryd( 5f)     0.00054       3.59006
   267    C    6  f(S1)  Ryd( 4f)     0.00081       1.98691
   268    C    6  f(S1)  Ryd( 5f)     0.00035       3.61794
   269    C    6  f(C2)  Ryd( 4f)     0.00066       1.55987
   270    C    6  f(C2)  Ryd( 5f)     0.00006       3.33386
   271    C    6  f(S2)  Ryd( 4f)     0.00080       1.50465
   272    C    6  f(S2)  Ryd( 5f)     0.00006       3.44995
   273    C    6  f(C3)  Ryd( 4f)     0.00118       3.01109
   274    C    6  f(C3)  Ryd( 5f)     0.00011       4.56986
   275    C    6  f(S3)  Ryd( 4f)     0.00187       2.56163
   276    C    6  f(S3)  Ryd( 5f)     0.00029       4.20189
 
   277    C    7  S      Cor( 1S)     1.99907     -10.53202
   278    C    7  S      Val( 2S)     0.77983      -0.09705
   279    C    7  S      Ryd( 4S)     0.00371       2.03858
   280    C    7  S      Ryd( 3S)     0.00017       1.84587
   281    C    7  S      Ryd( 5S)     0.00009       2.49182
   282    C    7  px     Val( 2p)     0.91612      -0.04328
   283    C    7  px     Ryd( 5p)     0.00583       1.61629
   284    C    7  px     Ryd( 3p)     0.00027       0.89048
   285    C    7  px     Ryd( 4p)     0.00002       1.55456
   286    C    7  py     Val( 2p)     0.72632      -0.01951
   287    C    7  py     Ryd( 4p)     0.01316       1.58322
   288    C    7  py     Ryd( 3p)     0.00007       0.83780
   289    C    7  py     Ryd( 5p)     0.00008       2.30447
   290    C    7  pz     Val( 2p)     0.75405      -0.12100
   291    C    7  pz     Ryd( 4p)     0.00059       1.13009
   292    C    7  pz     Ryd( 3p)     0.00007       0.52642
   293    C    7  pz     Ryd( 5p)     0.00002       1.27329
   294    C    7  dxy    Ryd( 5d)     0.00074       4.24563
   295    C    7  dxy    Ryd( 3d)     0.00006       3.23047
   296    C    7  dxy    Ryd( 4d)     0.00004       3.57545
   297    C    7  dxz    Ryd( 5d)     0.00059       3.27726
   298    C    7  dxz    Ryd( 4d)     0.00006       2.04151
   299    C    7  dxz    Ryd( 3d)     0.00006       1.70945
   300    C    7  dyz    Ryd( 5d)     0.00130       3.39145
   301    C    7  dyz    Ryd( 4d)     0.00004       2.22966
   302    C    7  dyz    Ryd( 3d)     0.00002       1.93049
   303    C    7  dx2y2  Ryd( 5d)     0.00154       4.27149
   304    C    7  dx2y2  Ryd( 4d)     0.00007       3.44913
   305    C    7  dx2y2  Ryd( 3d)     0.00004       2.47941
   306    C    7  dz2    Ryd( 5d)     0.00017       4.46865
   307    C    7  dz2    Ryd( 4d)     0.00016       3.52779
   308    C    7  dz2    Ryd( 3d)     0.00011       2.94007
   309    C    7  f(0)   Ryd( 5f)     0.00011       3.29968
   310    C    7  f(0)   Ryd( 4f)     0.00003       2.68338
   311    C    7  f(C1)  Ryd( 5f)     0.00018       3.67381
   312    C    7  f(C1)  Ryd( 4f)     0.00001       3.37870
   313    C    7  f(S1)  Ryd( 5f)     0.00007       3.52240
   314    C    7  f(S1)  Ryd( 4f)     0.00004       3.43537
   315    C    7  f(C2)  Ryd( 5f)     0.00002       3.22660
   316    C    7  f(C2)  Ryd( 4f)     0.00010       2.81753
   317    C    7  f(S2)  Ryd( 5f)     0.00002       3.47547
   318    C    7  f(S2)  Ryd( 4f)     0.00000       3.04506
   319    C    7  f(C3)  Ryd( 4f)     0.00007       4.65104
   320    C    7  f(C3)  Ryd( 5f)     0.00003       8.38585
   321    C    7  f(S3)  Ryd( 4f)     0.00008       4.29887
   322    C    7  f(S3)  Ryd( 5f)     0.00004       4.30140
 
   323    O    8  S      Cor( 1S)     1.99979     -19.32088
   324    O    8  S      Val( 2S)     1.70583      -0.99589
   325    O    8  S      Ryd( 4S)     0.00059       2.96732
   326    O    8  S      Ryd( 3S)     0.00021       1.43264
   327    O    8  S      Ryd( 5S)     0.00001       8.72530
   328    O    8  px     Val( 2p)     1.77750      -0.33494
   329    O    8  px     Ryd( 4p)     0.00117       1.23470
   330    O    8  px     Ryd( 3p)     0.00008       0.60841
   331    O    8  px     Ryd( 5p)     0.00003       4.84357
   332    O    8  py     Val( 2p)     1.64130      -0.33341
   333    O    8  py     Ryd( 4p)     0.00135       1.29959
   334    O    8  py     Ryd( 3p)     0.00015       0.60065
   335    O    8  py     Ryd( 5p)     0.00005       5.45518
   336    O    8  pz     Val( 2p)     1.45744      -0.28527
   337    O    8  pz     Ryd( 4p)     0.00077       0.88230
   338    O    8  pz     Ryd( 3p)     0.00003       0.50516
   339    O    8  pz     Ryd( 5p)     0.00000       4.18312
   340    O    8  dxy    Ryd( 3d)     0.00769       2.03300
   341    O    8  dxy    Ryd( 4d)     0.00014       3.02945
   342    O    8  dxy    Ryd( 5d)     0.00003       6.62338
   343    O    8  dxz    Ryd( 3d)     0.00195       1.42496
   344    O    8  dxz    Ryd( 4d)     0.00002       1.66588
   345    O    8  dxz    Ryd( 5d)     0.00001       6.47919
   346    O    8  dyz    Ryd( 3d)     0.00511       1.51917
   347    O    8  dyz    Ryd( 4d)     0.00005       1.70815
   348    O    8  dyz    Ryd( 5d)     0.00003       6.44037
   349    O    8  dx2y2  Ryd( 3d)     0.00591       1.84968
   350    O    8  dx2y2  Ryd( 4d)     0.00006       2.16853
   351    O    8  dx2y2  Ryd( 5d)     0.00005       6.51907
   352    O    8  dz2    Ryd( 3d)     0.00279       1.63634
   353    O    8  dz2    Ryd( 4d)     0.00009       2.47063
   354    O    8  dz2    Ryd( 5d)     0.00001       6.57169
   355    O    8  f(0)   Ryd( 4f)     0.00013       3.13011
   356    O    8  f(0)   Ryd( 5f)     0.00000       5.51319
   357    O    8  f(C1)  Ryd( 4f)     0.00007       3.27185
   358    O    8  f(C1)  Ryd( 5f)     0.00001       5.59662
   359    O    8  f(S1)  Ryd( 4f)     0.00011       3.53122
   360    O    8  f(S1)  Ryd( 5f)     0.00001       5.76743
   361    O    8  f(C2)  Ryd( 4f)     0.00011       3.10006
   362    O    8  f(C2)  Ryd( 5f)     0.00002       5.70662
   363    O    8  f(S2)  Ryd( 4f)     0.00028       3.17705
   364    O    8  f(S2)  Ryd( 5f)     0.00001       5.61077
   365    O    8  f(C3)  Ryd( 4f)     0.00039       3.91704
   366    O    8  f(C3)  Ryd( 5f)     0.00001       6.07209
   367    O    8  f(S3)  Ryd( 4f)     0.00043       3.60037
   368    O    8  f(S3)  Ryd( 5f)     0.00002       5.95111
 
   369    O    9  S      Cor( 1S)     1.99978     -19.45324
   370    O    9  S      Val( 2S)     1.67693      -1.02995
   371    O    9  S      Ryd( 3S)     0.00046       1.39400
   372    O    9  S      Ryd( 4S)     0.00008       2.63591
   373    O    9  S      Ryd( 5S)     0.00001       9.52231
   374    O    9  px     Val( 2p)     1.46429      -0.35386
   375    O    9  px     Ryd( 4p)     0.00070       1.13345
   376    O    9  px     Ryd( 3p)     0.00011       0.60937
   377    O    9  px     Ryd( 5p)     0.00004       5.28072
   378    O    9  py     Val( 2p)     1.69576      -0.39872
   379    O    9  py     Ryd( 4p)     0.00079       0.99995
   380    O    9  py     Ryd( 3p)     0.00015       0.53672
   381    O    9  py     Ryd( 5p)     0.00007       5.06064
   382    O    9  pz     Val( 2p)     1.84665      -0.40799
   383    O    9  pz     Ryd( 4p)     0.00122       0.75795
   384    O    9  pz     Ryd( 3p)     0.00001       0.50063
   385    O    9  pz     Ryd( 5p)     0.00001       4.15679
   386    O    9  dxy    Ryd( 3d)     0.00629       1.98363
   387    O    9  dxy    Ryd( 4d)     0.00018       2.45837
   388    O    9  dxy    Ryd( 5d)     0.00003       6.81521
   389    O    9  dxz    Ryd( 3d)     0.00035       1.15636
   390    O    9  dxz    Ryd( 4d)     0.00006       1.91371
   391    O    9  dxz    Ryd( 5d)     0.00001       6.50974
   392    O    9  dyz    Ryd( 3d)     0.00488       1.28798
   393    O    9  dyz    Ryd( 4d)     0.00002       1.69689
   394    O    9  dyz    Ryd( 5d)     0.00004       6.51016
   395    O    9  dx2y2  Ryd( 3d)     0.00385       1.73992
   396    O    9  dx2y2  Ryd( 4d)     0.00007       2.07164
   397    O    9  dx2y2  Ryd( 5d)     0.00007       6.87149
   398    O    9  dz2    Ryd( 3d)     0.00300       1.50476
   399    O    9  dz2    Ryd( 4d)     0.00014       2.30965
   400    O    9  dz2    Ryd( 5d)     0.00001       6.73962
   401    O    9  f(0)   Ryd( 4f)     0.00055       2.75623
   402    O    9  f(0)   Ryd( 5f)     0.00001       5.95079
   403    O    9  f(C1)  Ryd( 4f)     0.00027       3.35705
   404    O    9  f(C1)  Ryd( 5f)     0.00001       6.21680
   405    O    9  f(S1)  Ryd( 4f)     0.00014       3.27293
   406    O    9  f(S1)  Ryd( 5f)     0.00001       6.12699
   407    O    9  f(C2)  Ryd( 4f)     0.00007       2.80896
   408    O    9  f(C2)  Ryd( 5f)     0.00001       6.11131
   409    O    9  f(S2)  Ryd( 4f)     0.00008       2.84118
   410    O    9  f(S2)  Ryd( 5f)     0.00001       5.97904
   411    O    9  f(C3)  Ryd( 4f)     0.00008       4.32945
   412    O    9  f(C3)  Ryd( 5f)     0.00005       6.52776
   413    O    9  f(S3)  Ryd( 4f)     0.00009       3.80839
   414    O    9  f(S3)  Ryd( 5f)     0.00002       6.46729
 
   415    H   10  S      Val( 1S)     0.76060       0.05356
   416    H   10  S      Ryd( 4S)     0.00043       1.98571
   417    H   10  S      Ryd( 2S)     0.00013       0.80336
   418    H   10  S      Ryd( 3S)     0.00003       1.49251
   419    H   10  px     Ryd( 2p)     0.00051       0.98061
   420    H   10  px     Ryd( 4p)     0.00008       4.17442
   421    H   10  px     Ryd( 3p)     0.00010       3.11814
   422    H   10  py     Ryd( 2p)     0.00075       0.94922
   423    H   10  py     Ryd( 4p)     0.00017       4.23147
   424    H   10  py     Ryd( 3p)     0.00006       4.20492
   425    H   10  pz     Ryd( 2p)     0.00013       0.64846
   426    H   10  pz     Ryd( 4p)     0.00002       3.93423
   427    H   10  pz     Ryd( 3p)     0.00005       2.06365
   428    H   10  dxy    Ryd( 3d)     0.00007       2.16155
   429    H   10  dxy    Ryd( 4d)     0.00002       4.45972
   430    H   10  dxz    Ryd( 3d)     0.00003       1.62268
   431    H   10  dxz    Ryd( 4d)     0.00001       3.66321
   432    H   10  dyz    Ryd( 3d)     0.00002       1.72983
   433    H   10  dyz    Ryd( 4d)     0.00002       3.91931
   434    H   10  dx2y2  Ryd( 3d)     0.00005       2.26929
   435    H   10  dx2y2  Ryd( 4d)     0.00003       4.48976
   436    H   10  dz2    Ryd( 3d)     0.00004       2.21542
   437    H   10  dz2    Ryd( 4d)     0.00002       4.17083
 
   438    H   11  S      Val( 1S)     0.78368       0.03601
   439    H   11  S      Ryd( 4S)     0.00032       2.03562
   440    H   11  S      Ryd( 2S)     0.00014       0.88067
   441    H   11  S      Ryd( 3S)     0.00001       1.21699
   442    H   11  px     Ryd( 2p)     0.00046       1.03718
   443    H   11  px     Ryd( 4p)     0.00007       3.91401
   444    H   11  px     Ryd( 3p)     0.00008       2.75332
   445    H   11  py     Ryd( 2p)     0.00068       1.09496
   446    H   11  py     Ryd( 4p)     0.00008       4.69483
   447    H   11  py     Ryd( 3p)     0.00006       3.00393
   448    H   11  pz     Ryd( 2p)     0.00017       0.85648
   449    H   11  pz     Ryd( 4p)     0.00009       3.05122
   450    H   11  pz     Ryd( 3p)     0.00001       2.29552
   451    H   11  dxy    Ryd( 3d)     0.00013       2.21723
   452    H   11  dxy    Ryd( 4d)     0.00003       4.29359
   453    H   11  dxz    Ryd( 3d)     0.00001       1.68055
   454    H   11  dxz    Ryd( 4d)     0.00000       3.50210
   455    H   11  dyz    Ryd( 3d)     0.00001       1.78843
   456    H   11  dyz    Ryd( 4d)     0.00000       3.71494
   457    H   11  dx2y2  Ryd( 3d)     0.00004       2.02457
   458    H   11  dx2y2  Ryd( 4d)     0.00001       4.37130
   459    H   11  dz2    Ryd( 3d)     0.00002       1.99130
   460    H   11  dz2    Ryd( 4d)     0.00002       3.71270
 
   461    H   12  S      Val( 1S)     0.78576       0.03274
   462    H   12  S      Ryd( 4S)     0.00031       2.03063
   463    H   12  S      Ryd( 2S)     0.00014       0.93892
   464    H   12  S      Ryd( 3S)     0.00001       0.99010
   465    H   12  px     Ryd( 2p)     0.00083       0.98325
   466    H   12  px     Ryd( 4p)     0.00013       4.41688
   467    H   12  px     Ryd( 3p)     0.00003       4.03678
   468    H   12  py     Ryd( 2p)     0.00032       0.94217
   469    H   12  py     Ryd( 4p)     0.00003       3.90160
   470    H   12  py     Ryd( 3p)     0.00011       2.17348
   471    H   12  pz     Ryd( 2p)     0.00011       0.76866
   472    H   12  pz     Ryd( 4p)     0.00005       3.74724
   473    H   12  pz     Ryd( 3p)     0.00005       1.71873
   474    H   12  dxy    Ryd( 3d)     0.00002       1.91560
   475    H   12  dxy    Ryd( 4d)     0.00002       4.37826
   476    H   12  dxz    Ryd( 3d)     0.00001       1.73181
   477    H   12  dxz    Ryd( 4d)     0.00001       3.93968
   478    H   12  dyz    Ryd( 3d)     0.00002       1.49210
   479    H   12  dyz    Ryd( 4d)     0.00000       3.42943
   480    H   12  dx2y2  Ryd( 3d)     0.00016       2.11752
   481    H   12  dx2y2  Ryd( 4d)     0.00002       4.28346
   482    H   12  dz2    Ryd( 3d)     0.00002       1.88042
   483    H   12  dz2    Ryd( 4d)     0.00003       3.77218
 
   484    H   13  S      Val( 1S)     0.78495       0.03500
   485    H   13  S      Ryd( 4S)     0.00034       2.02909
   486    H   13  S      Ryd( 2S)     0.00014       0.85020
   487    H   13  S      Ryd( 3S)     0.00001       1.23478
   488    H   13  px     Ryd( 2p)     0.00040       1.02883
   489    H   13  px     Ryd( 4p)     0.00007       3.68517
   490    H   13  px     Ryd( 3p)     0.00008       2.81604
   491    H   13  py     Ryd( 2p)     0.00078       1.08421
   492    H   13  py     Ryd( 4p)     0.00008       4.85427
   493    H   13  py     Ryd( 3p)     0.00006       3.06050
   494    H   13  pz     Ryd( 2p)     0.00018       0.84496
   495    H   13  pz     Ryd( 4p)     0.00009       2.91641
   496    H   13  pz     Ryd( 3p)     0.00001       2.44456
   497    H   13  dxy    Ryd( 3d)     0.00011       2.21894
   498    H   13  dxy    Ryd( 4d)     0.00003       4.28075
   499    H   13  dxz    Ryd( 3d)     0.00001       1.69556
   500    H   13  dxz    Ryd( 4d)     0.00000       3.42190
   501    H   13  dyz    Ryd( 3d)     0.00001       1.83654
   502    H   13  dyz    Ryd( 4d)     0.00000       3.72416
   503    H   13  dx2y2  Ryd( 3d)     0.00005       2.07526
   504    H   13  dx2y2  Ryd( 4d)     0.00001       4.32950
   505    H   13  dz2    Ryd( 3d)     0.00002       2.01687
   506    H   13  dz2    Ryd( 4d)     0.00003       3.68460
 
   507    H   14  S      Val( 1S)     0.76838       0.04462
   508    H   14  S      Ryd( 4S)     0.00044       1.96325
   509    H   14  S      Ryd( 2S)     0.00012       0.83011
   510    H   14  S      Ryd( 3S)     0.00003       1.50485
   511    H   14  px     Ryd( 2p)     0.00062       0.97785
   512    H   14  px     Ryd( 4p)     0.00010       4.18962
   513    H   14  px     Ryd( 3p)     0.00008       3.23401
   514    H   14  py     Ryd( 2p)     0.00067       0.92731
   515    H   14  py     Ryd( 4p)     0.00016       4.21957
   516    H   14  py     Ryd( 3p)     0.00005       4.04257
   517    H   14  pz     Ryd( 2p)     0.00021       0.61239
   518    H   14  pz     Ryd( 4p)     0.00003       3.95261
   519    H   14  pz     Ryd( 3p)     0.00005       2.04741
   520    H   14  dxy    Ryd( 3d)     0.00010       2.18572
   521    H   14  dxy    Ryd( 4d)     0.00003       4.50959
   522    H   14  dxz    Ryd( 3d)     0.00004       1.57043
   523    H   14  dxz    Ryd( 4d)     0.00001       3.77776
   524    H   14  dyz    Ryd( 3d)     0.00002       1.63041
   525    H   14  dyz    Ryd( 4d)     0.00001       3.97286
   526    H   14  dx2y2  Ryd( 3d)     0.00003       2.18604
   527    H   14  dx2y2  Ryd( 4d)     0.00003       4.54408
   528    H   14  dz2    Ryd( 3d)     0.00004       2.24547
   529    H   14  dz2    Ryd( 4d)     0.00002       4.19721
 
   530    H   15  S      Val( 1S)     0.49157       0.13743
   531    H   15  S      Ryd( 4S)     0.00122       1.79824
   532    H   15  S      Ryd( 3S)     0.00020       1.62971
   533    H   15  S      Ryd( 2S)     0.00007       0.52839
   534    H   15  px     Ryd( 2p)     0.00051       1.73454
   535    H   15  px     Ryd( 4p)     0.00032       4.61010
   536    H   15  px     Ryd( 3p)     0.00001       3.13820
   537    H   15  py     Ryd( 2p)     0.00029       1.33063
   538    H   15  py     Ryd( 4p)     0.00007       3.79645
   539    H   15  py     Ryd( 3p)     0.00001       2.75610
   540    H   15  pz     Ryd( 2p)     0.00062       1.04326
   541    H   15  pz     Ryd( 4p)     0.00007       3.50493
   542    H   15  pz     Ryd( 3p)     0.00001       2.44685
   543    H   15  dxy    Ryd( 3d)     0.00008       1.44271
   544    H   15  dxy    Ryd( 4d)     0.00000       4.41093
   545    H   15  dxz    Ryd( 3d)     0.00014       1.14810
   546    H   15  dxz    Ryd( 4d)     0.00000       4.22530
   547    H   15  dyz    Ryd( 3d)     0.00003       1.16390
   548    H   15  dyz    Ryd( 4d)     0.00000       3.80483
   549    H   15  dx2y2  Ryd( 3d)     0.00010       1.75322
   550    H   15  dx2y2  Ryd( 4d)     0.00001       4.57319
   551    H   15  dz2    Ryd( 3d)     0.00011       1.63499
   552    H   15  dz2    Ryd( 4d)     0.00001       4.02805

 WARNING:  1 low occupancy (<1.9990e) core orbital  found on  C    6

 WARNING:  Population inversion found on atom  C    1
           Population inversion found on atom  C    2
           Population inversion found on atom  C    3
           Population inversion found on atom  C    4
           Population inversion found on atom  C    5
           Population inversion found on atom  C    6
           Population inversion found on atom  C    7
           Population inversion found on atom  O    8
           Population inversion found on atom  O    9
           Population inversion found on atom  H   10
           Population inversion found on atom  H   11
           Population inversion found on atom  H   12
           Population inversion found on atom  H   13
           Population inversion found on atom  H   14
           Population inversion found on atom  H   15


 Summary of Natural Population Analysis:                  
                                                          
                                       Natural Population 
                Natural  -----------------------------------------------
    Atom  No    Charge         Core      Valence    Rydberg      Total
 -----------------------------------------------------------------------
      C    1   -0.12290      1.99909     4.10212    0.02169     6.12290
      C    2   -0.21207      1.99912     4.19405    0.01889     6.21207
      C    3   -0.17004      1.99911     4.15167    0.01926     6.17004
      C    4   -0.21374      1.99912     4.19548    0.01914     6.21374
      C    5   -0.13641      1.99910     4.11611    0.02119     6.13641
      C    6   -0.22838      1.99883     4.20141    0.02813     6.22838
      C    7    0.79473      1.99907     3.17631    0.02989     5.20527
      O    8   -0.61182      1.99979     6.58207    0.02997     8.61182
      O    9   -0.70747      1.99978     6.68363    0.02407     8.70747
      H   10    0.23663      0.00000     0.76060    0.00277     0.76337
      H   11    0.21387      0.00000     0.78368    0.00245     0.78613
      H   12    0.21182      0.00000     0.78576    0.00242     0.78818
      H   13    0.21253      0.00000     0.78495    0.00252     0.78747
      H   14    0.22872      0.00000     0.76838    0.00290     0.77128
      H   15    0.50453      0.00000     0.49157    0.00389     0.49547
 =======================================================================
   * Total *    0.00000     17.99302    45.77779    0.22919    64.00000

                                 Natural Population      
 --------------------------------------------------------
   Core                      17.99302 ( 99.9612% of  18)
   Valence                   45.77779 ( 99.5169% of  46)
   Natural Minimal Basis     63.77081 ( 99.6419% of  64)
   Natural Rydberg Basis      0.22919 (  0.3581% of  64)
 --------------------------------------------------------

    Atom  No          Natural Electron Configuration
 ----------------------------------------------------------------------------
      C    1      [core]2S( 0.94)2p( 3.16)4p( 0.01)
      C    2      [core]2S( 0.95)2p( 3.25)5p( 0.01)
      C    3      [core]2S( 0.95)2p( 3.20)4p( 0.01)
      C    4      [core]2S( 0.95)2p( 3.25)5p( 0.01)
      C    5      [core]2S( 0.94)2p( 3.18)4p( 0.01)
      C    6      [core]2S( 0.89)2p( 3.31)3d( 0.01)4p( 0.01)4f( 0.01)
      C    7      [core]2S( 0.78)2p( 2.40)4p( 0.01)5p( 0.01)
      O    8      [core]2S( 1.71)2p( 4.88)3d( 0.02)
      O    9      [core]2S( 1.68)2p( 5.01)3d( 0.02)
      H   10            1S( 0.76)
      H   11            1S( 0.78)
      H   12            1S( 0.79)
      H   13            1S( 0.78)
      H   14            1S( 0.77)
      H   15            1S( 0.49)


 NATURAL BOND ORBITAL ANALYSIS:

                       Occupancies       Lewis Structure    Low   High
           Occ.    -------------------  -----------------   occ   occ
  Cycle   Thresh.   Lewis   Non-Lewis     CR  BD  3C  LP    (L)   (NL)   Dev
 =============================================================================
   1(1)    1.90    60.05917   3.94083      9  17   0   6     8      6    0.46
   2(2)    1.90    60.05917   3.94083      9  17   0   6     8      6    0.46
   3(1)    1.80    60.42368   3.57632      9  16   0   7     3      4    0.46
   4(2)    1.80    60.42368   3.57632      9  16   0   7     3      4    0.46
   5(1)    1.70    60.42368   3.57632      9  16   0   7     3      4    0.46
   6(2)    1.70    60.42368   3.57632      9  16   0   7     3      4    0.46
   7(1)    1.60    62.28256   1.71744      9  19   0   4     0      4    0.45
   8(2)    1.60    62.25198   1.74802      9  19   0   4     0      4    0.46
   9(3)    1.60    61.71778   2.28222      9  18   0   5     1      4    0.43
  10(4)    1.60    62.28256   1.71744      9  19   0   4     0      4    0.45
  11(5)    1.60    61.71778   2.28222      9  18   0   5     1      4    0.43
  12(6)    1.60    62.28256   1.71744      9  19   0   4     0      4    0.45
  13(7)    1.60    61.71778   2.28222      9  18   0   5     1      4    0.43
  14(8)    1.60    62.28256   1.71744      9  19   0   4     0      4    0.45
  15(9)    1.60    61.71778   2.28222      9  18   0   5     1      4    0.43
  16(1)    1.50    61.79332   2.20668      9  18   0   5     0      5    0.73
  17(2)    1.50    61.79332   2.20668      9  18   0   5     0      5    0.73
  18(1)    1.60    62.28256   1.71744      9  19   0   4     0      4    0.45
 -----------------------------------------------------------------------------

 Structure accepted: RESONANCE keyword permits strongly delocalized structure

 WARNING:  1 low occupancy (<1.9990e) core orbital  found on  C    6

 --------------------------------------------------------
   Core                     17.99306 ( 99.961% of  18)
   Valence Lewis            44.28951 ( 96.282% of  46)
  ==================       ============================
   Total Lewis              62.28256 ( 97.317% of  64)
  -----------------------------------------------------
   Valence non-Lewis         1.59492 (  2.492% of  64)
   Rydberg non-Lewis         0.12252 (  0.191% of  64)
  ==================       ============================
   Total non-Lewis           1.71744 (  2.683% of  64)
 --------------------------------------------------------


       (Occupancy)   Bond orbital/ Coefficients/ Hybrids
 ---------------------------------------------------------------------------------
     1. (1.97829) BD ( 1) C   1 - C   2  
                ( 50.02%)   0.7072* C   1 s( 36.73%)p 1.72( 63.07%)d 0.00(  0.14%)
                                                  f 0.00(  0.06%)
                                            0.0000  0.6058 -0.0168  0.0001  0.0015
                                            0.7931 -0.0183 -0.0053  0.0031 -0.0221
                                           -0.0299  0.0012  0.0009  0.0000  0.0000
                                            0.0000  0.0000 -0.0134  0.0020 -0.0039
                                            0.0000  0.0000  0.0000  0.0000  0.0000
                                            0.0000  0.0265  0.0035 -0.0034 -0.0218
                                           -0.0011 -0.0018  0.0000  0.0000 -0.0139
                                           -0.0110  0.0027  0.0002  0.0000  0.0000
                                            0.0000  0.0000  0.0104  0.0086 -0.0081
                                            0.0029
                ( 49.98%)   0.7070* C   2 s( 36.62%)p 1.73( 63.20%)d 0.00(  0.16%)
                                                  f 0.00(  0.03%)
                                            0.0000  0.6050 -0.0110  0.0011 -0.0001
                                           -0.7912  0.0164 -0.0029  0.0016  0.0687
                                           -0.0316  0.0019  0.0009  0.0000  0.0000
                                            0.0000  0.0000  0.0003  0.0057  0.0023
                                            0.0000  0.0000  0.0000  0.0000  0.0000
                                            0.0000  0.0319  0.0056 -0.0007 -0.0213
                                           -0.0029  0.0002  0.0000  0.0000  0.0125
                                            0.0013 -0.0027  0.0008  0.0000  0.0000
                                            0.0000  0.0000 -0.0063 -0.0015  0.0053
                                           -0.0052
     2. (1.64963) BD ( 2) C   1 - C   2  
                ( 47.63%)   0.6901* C   1 s(  0.00%)p 1.00( 99.91%)d 0.00(  0.05%)
                                                  f 0.00(  0.04%)
                                            0.0000  0.0000  0.0000  0.0000  0.0000
                                            0.0000  0.0000  0.0000  0.0000  0.0000
                                            0.0000  0.0000  0.0000  0.9996 -0.0009
                                            0.0052  0.0014  0.0000  0.0000  0.0000
                                            0.0171  0.0043  0.0000 -0.0119 -0.0022
                                           -0.0026  0.0000  0.0000  0.0000  0.0000
                                            0.0000  0.0000 -0.0100 -0.0103  0.0000
                                            0.0000  0.0000  0.0000 -0.0094  0.0056
                                           -0.0063  0.0049  0.0000  0.0000  0.0000
                                            0.0000
                ( 52.37%)   0.7237* C   2 s(  0.00%)p 1.00( 99.95%)d 0.00(  0.03%)
                                                  f 0.00(  0.01%)
                                            0.0000  0.0000  0.0000  0.0000  0.0000
                                            0.0000  0.0000  0.0000  0.0000  0.0000
                                            0.0000  0.0000  0.0000  0.9997  0.0066
                                            0.0012  0.0046  0.0000  0.0000  0.0000
                                           -0.0161 -0.0032 -0.0004 -0.0062 -0.0063
                                            0.0001  0.0000  0.0000  0.0000  0.0000
[...]
 ! D26   D(1,6,7,9)           -180.0009         -DE/DX =    0.0                 !
 ! D27   D(5,6,7,8)           -179.9997         -DE/DX =    0.0                 !
 ! D28   D(5,6,7,9)             -0.0009         -DE/DX =    0.0                 !
 ! D29   D(6,7,9,15)          -179.9994         -DE/DX =    0.0                 !
 ! D30   D(8,7,9,15)            -0.0006         -DE/DX =    0.0                 !
 --------------------------------------------------------------------------------
 GradGradGradGradGradGradGradGradGradGradGradGradGradGradGradGradGradGrad


 ----------------------------------------------------------------------

 Electric dipole moment (input orientation):
 (Debye = 10**-18 statcoulomb cm , SI units = C m)
                  (au)            (Debye)         (10**-30 SI)
   Tot        0.816736D+00      0.207594D+01      0.692457D+01
   x          0.556246D+00      0.141384D+01      0.471605D+01
   y         -0.598037D+00     -0.152006D+01     -0.507036D+01
   z          0.314137D-03      0.798456D-03      0.266336D-02

 Dipole polarizability, Alpha (input orientation).
 (esu units = cm**3 , SI units = C**2 m**2 J**-1)
 Alpha(0;0):
               (au)            (10**-24 esu)      (10**-40 SI)
   iso        0.875128D+02      0.129681D+02      0.144289D+02
   aniso      0.563769D+02      0.835419D+01      0.929529D+01
   xx         0.947422D+02      0.140393D+02      0.156209D+02
   yx        -0.107467D+01     -0.159250D+00     -0.177190D+00
   yy         0.115821D+03      0.171629D+02      0.190964D+02
   zx         0.344468D-01      0.510448D-02      0.567950D-02
   zy         0.138026D-01      0.204533D-02      0.227574D-02
   zz         0.519748D+02      0.770186D+01      0.856948D+01

 ----------------------------------------------------------------------

 Dipole orientation:
     6         -1.51534104         -1.41106493         -1.09896487
     6         -2.79881064         -2.60663996          0.84231212
     6         -2.20509140         -2.05358069          3.33958095
     6         -0.32915289         -0.30611158          3.89725355
     6          0.96093124          0.89562548          1.95982252
     6          0.36452002          0.34005787         -0.54011211
     6          1.68775336          1.57266987         -2.68689340
     8          1.25564419          1.17016506         -4.87917343
     8          3.46939801          3.23235314         -1.94248852
     1         -1.93785355         -1.80464328         -3.05853675
     1         -4.26040330         -3.96813981          0.41432718
     1         -3.20823657         -2.98802713          4.85554844
     1          0.12809743          0.11982584          5.84224871
     1          2.42399292          2.25849321          2.36997139
     1          4.21080645          3.92300614         -3.46093573

 Electric dipole moment (dipole orientation):
 (Debye = 10**-18 statcoulomb cm , SI units = C m)
                  (au)            (Debye)         (10**-30 SI)
   Tot        0.816736D+00      0.207594D+01      0.692457D+01
   x          0.000000D+00      0.000000D+00      0.000000D+00
   y          0.000000D+00      0.000000D+00      0.000000D+00
   z          0.816736D+00      0.207594D+01      0.692457D+01

 Dipole polarizability, Alpha (dipole orientation).
 (esu units = cm**3 , SI units = C**2 m**2 J**-1)
 Alpha(0;0):
               (au)            (10**-24 esu)      (10**-40 SI)
   iso        0.875128D+02      0.129681D+02      0.144289D+02
   aniso      0.563769D+02      0.835419D+01      0.929529D+01
   xx         0.795338D+02      0.117857D+02      0.131134D+02
   yx         0.256719D+02      0.380418D+01      0.423272D+01
   yy         0.758886D+02      0.112455D+02      0.125123D+02
   zx        -0.763488D+01     -0.113137D+01     -0.125882D+01
   zy        -0.711208D+01     -0.105390D+01     -0.117262D+01
   zz         0.107116D+03      0.158729D+02      0.176610D+02

 ----------------------------------------------------------------------
 Unable to Open any file for archive entry.
 1\1\GINC-AE02\Freq\RM062X\Aug-CC-pVTZ\C7H6O2\DHUANG\05-Sep-2022\0\\#N 
 Geom=AllCheck Guess=TCheck SCRF=Check GenChk RM062X/Aug-CC-pVTZ Freq\\
 H_benzoic-acid\\0,1\C,-1.1983785281,-0.3204202366,-0.0008497023\C,-1.1
 78395866,-1.704785033,-0.0011497393\C,0.0360244855,-2.3799910765,-0.00
 03202305\C,1.2304056893,-1.6720995331,0.0008087878\C,1.2153119471,-0.2
 859669104,0.001113377\C,-0.0014948776,0.3889459816,0.000281593\C,-0.07
 44857979,1.8725236156,0.0005599166\O,-1.0934047207,2.5091557229,-0.000
 1154213\O,1.1372743865,2.4616292319,0.0016954736\H,-2.1283506838,0.230
 7660921,-0.0014775207\H,-2.1066226659,-2.2588454608,-0.0020284729\H,0.
 0511700542,-3.461485917,-0.0005544833\H,2.1735196922,-2.2005278422,0.0
 014525215\H,2.1378883713,0.2757280232,0.0019890644\H,0.9826385141,3.41
 51733424,0.0017948365\\Version=ES64L-G16RevC.01\State=1-A\HF=-420.8189
 061\RMSD=1.910e-09\RMSF=9.018e-05\ZeroPoint=0.1165753\Thermal=0.123659
 2\ETot=-420.6952469\HTot=-420.6943027\GTot=-420.7343647\Dipole=0.55624
 58,-0.5980365,0.0003141\DipoleDeriv=-0.0137372,0.0848928,0.0000728,-0.
 1235088,0.0652825,-0.0000673,0.0000248,0.0001041,-0.0795377,0.0123018,
 0.126513,0.000146,0.1813659,-0.1061867,0.0001529,0.0001587,0.0001083,-
 0.1323374,0.068535,0.0069982,0.0001426,0.0009379,0.0962663,0.0000467,0
 .000141,0.0000516,-0.1055027,0.0226549,-0.1341573,0.0000982,-0.1673498
 ,-0.1351932,-0.0001355,0.000091,-0.0001088,-0.1362285,-0.0172171,-0.08
 27018,0.0000338,0.1183888,0.0932883,0.0001361,0.0000802,-0.0000254,-0.
 0823178,-0.0508823,-0.0029953,-0.0000045,0.0034533,-0.5578232,-0.00011
 48,-0.0000035,-0.0001179,-0.0468572,1.6658753,0.093181,0.0011137,0.035
 1693,2.0980524,0.0004358,0.0011001,0.0004873,0.3338241,-0.9887123,0.30
 51366,-0.0004358,0.3736819,-1.138544,0.0001293,-0.0004129,0.0000674,-0
 .3722154,-1.0363245,-0.4939795,-0.0006668,-0.5007763,-0.9015075,-0.000
 5346,-0.0006746,-0.0005334,-0.3612706,0.0303477,0.0246327,-0.0000732,0
 .03916,0.0921869,0.0000237,-0.0000699,0.0000119,0.1276172,-0.0280066,-
 0.0611882,-0.000145,-0.0545356,0.0219301,-0.0000698,-0.0001434,-0.0000
 755,0.1337679,0.0712208,0.0021926,-0.0000464,0.0018515,-0.0721928,-0.0
 000445,-0.0000464,-0.000044,0.1290749,-0.0340976,0.0600798,-0.0001221,
 0.0531475,0.0241496,0.000018,-0.0001241,0.0000236,0.1336219,0.0183629,
 -0.039225,-0.0000987,-0.0383664,0.0819929,-0.0000416,-0.0000988,-0.000
 0422,0.1292374,0.2796792,0.1106203,-0.0000145,0.0773809,0.3382983,0.00
 00655,-0.0000222,0.0000929,0.329124\Polar=94.7422069,-1.0746737,115.82
 12999,0.0344468,0.0138026,51.974759\Quadrupole=-0.2456863,3.787271,-3.
 5415846,4.1258261,0.0036118,0.0050483\PG=C01 [X(C7H6O2)]\NImag=0\\0.72
 591877,-0.04174504,0.71432826,0.00046123,0.00009605,0.14486373,-0.1341
 4690,-0.03637705,-0.00006435,0.73181728,0.04053558,-0.35007313,-0.0000
 3221,0.04047662,0.69902358,-0.00004679,-0.00009462,-0.06501164,0.00049
 028,0.00016095,0.13801942,0.04059641,0.08956554,0.00004846,-0.29070897
 ,0.04690819,-0.00017254,0.67104197,0.03193086,-0.02493931,0.00001881,0
 .12540547,-0.18180088,0.00007478,-0.00039411,0.75380318,0.00003528,0.0
 0006547,0.00602309,-0.00015464,0.00001123,-0.06444325,0.00042797,0.000
 13910,0.14261929,-0.01988572,-0.03339318,-0.00001919,-0.05980175,0.026
 87709,-0.00004754,-0.28737465,-0.12927853,-0.00021001,0.73599785,-0.03
 585687,-0.06284748,-0.00004212,-0.03034235,0.07696766,-0.00000850,-0.0
 5067781,-0.18724846,-0.00006905,-0.03756366,0.69364186,-0.00001973,-0.
 00004012,-0.00560387,-0.00006063,0.00003785,0.00646541,-0.00019209,-0.
 00013272,-0.06457731,0.00047618,0.00009650,0.13776204,-0.06091327,-0.0
 2989158,-0.00006203,-0.02149004,0.03646482,-0.00000464,0.04328555,-0.0
 2966924,0.00002338,-0.13348514,-0.03563339,-0.00006339,0.72934289,0.02
 653097,0.07315517,0.00003652,0.03474678,-0.06123019,0.00001544,-0.0880
 4239,-0.02807460,-0.00007911,0.04208086,-0.34516383,-0.00002991,0.0428
 6332,0.70528046,-0.00004919,-0.00000917,0.00726949,-0.00000501,0.00001
 683,-0.00551113,0.00001006,-0.00003182,0.00606541,-0.00004567,-0.00009
 282,-0.06522011,0.00048403,0.00016285,0.14398529,-0.28206032,-0.049477
 04,-0.00018537,0.04046963,-0.08227511,0.00000822,-0.07864486,-0.001419
 96,-0.00005849,0.03686728,0.08497668,0.00004286,-0.28822915,0.04694093
 ,-0.00016959,0.72360908,-0.11854058,-0.17136634,-0.00011967,-0.0250970
 4,-0.03112997,-0.00002903,-0.00122744,-0.00196173,0.00000011,0.0273286
 9,-0.02811206,0.00001399,0.11563611,-0.16919451,0.00007009,-0.00265929
 ,0.65584139,-0.00020117,-0.00006367,-0.06714926,0.00002134,-0.00007543
 ,0.00716562,-0.00005847,-0.00000004,-0.00683301,0.00002973,0.00006062,
 0.00782188,-0.00015393,0.00001453,-0.06570278,0.00046620,0.00011412,0.
 14780233,0.01226346,-0.02474106,0.00000300,-0.00547219,-0.00742321,-0.
 00001281,-0.00528646,0.00042194,-0.00000321,-0.00585934,0.00564973,-0.
 00001060,0.00870796,0.02693360,0.00001317,-0.09852458,-0.00812012,-0.0
 0001316,0.88259007,-0.01624858,-0.02818978,-0.00002007,-0.00408587,0.0
 0505215,-0.00000409,0.00003260,0.00184838,0.00000073,0.00332320,0.0055
 7490,0.00000191,0.01505173,-0.01796801,0.00000810,0.00310816,-0.207102
 31,-0.00002492,-0.19159362,0.75421456,0.00000478,-0.00002685,0.0016769
 4,-0.00001205,-0.00000674,0.00827680,-0.00000331,0.00000101,-0.0012083
 8,-0.00001117,0.00000388,0.00881036,0.00001066,0.00001772,-0.00004721,
 -0.00001058,-0.00003505,-0.08457645,0.00049532,-0.00002872,0.21803710,
 -0.00702274,-0.00545604,-0.00000714,0.00104209,0.00210233,0.00000203,0
 .00042740,-0.00022973,0.00000018,0.00103303,0.00099490,0.00000252,0.00
 278129,0.00024926,0.00000019,-0.00776572,0.02791329,-0.00001745,-0.557
 95499,0.29722808,-0.00031717,0.67920941,0.00398635,-0.00005442,0.00000
 322,0.00100420,0.00060997,0.00000114,0.00171115,-0.00081610,0.00000116
 ,0.00108613,-0.00345501,0.00000052,-0.00744542,-0.00516777,-0.00000781
 ,0.04644562,-0.03410358,0.00002457,0.28786463,-0.31266089,0.00017857,-
 0.33960266,0.31663559,-0.00000489,-0.00000446,0.00018812,0.00000178,0.
 00000202,-0.00088171,0.00000061,-0.00000040,0.00014521,0.00000257,0.00
 000042,-0.00179879,-0.00000162,-0.00000164,0.00262487,-0.00001321,0.00
 000993,0.02182627,-0.00031916,0.00018589,-0.08040893,0.00044400,-0.000
 20896,0.03393955,0.00179308,0.00072142,0.00000049,0.00119365,-0.000400
 92,0.00000130,0.00021840,-0.00029613,0.00000003,0.00064997,-0.00129490
 ,0.00000088,-0.00433920,0.00147624,-0.00000352,-0.00382279,-0.01325487
 ,-0.00001619,-0.23408100,-0.05233245,-0.00015028,-0.11577518,-0.003522
 73,-0.00011984,0.41410076,0.00577981,-0.00509563,0.00000319,-0.0012711
 7,-0.00246881,-0.00000144,-0.00132072,-0.00065966,-0.00000124,-0.00070
 029,0.00053599,-0.00000026,-0.00132990,-0.00457322,-0.00000227,-0.0425
 0687,-0.02923057,-0.00004458,-0.07994397,-0.17048765,-0.00009036,0.007
 37171,0.03934808,0.00000830,0.00534268,0.66610524,0.00000171,-0.000000
 94,0.00138032,0.00000108,-0.00000079,-0.00050804,-0.00000021,-0.000000
 42,0.00009999,0.00000101,-0.00000077,-0.00078516,-0.00000423,0.0000000
 2,0.00046090,-0.00002291,-0.00002028,0.01203725,-0.00015717,-0.0000678
 3,-0.06587943,-0.00011708,-0.00000061,0.02982698,0.00030936,0.00015315
 ,0.03804180,-0.27413494,0.12397186,-0.00016049,0.00571422,-0.00247734,
 0.00000017,0.00147539,-0.00091144,-0.00000544,0.00029665,-0.00073171,0
 .00000098,-0.00292127,-0.00398788,-0.00000857,-0.01931967,0.01476243,-
 0.00001597,-0.00283597,0.00236124,0.00000157,0.00249005,0.00052347,0.0
 0000231,0.00086830,-0.00004967,0.00000062,0.28863660,0.12601657,-0.131
 42765,0.00008152,0.02675395,-0.00881542,0.00001858,-0.00076619,-0.0054
 5038,-0.00000367,-0.00086678,-0.00093579,-0.00000066,-0.00358627,-0.00
 146205,-0.00000473,-0.01284001,0.01285169,-0.00000852,-0.00216238,0.00
 052435,-0.00000071,0.00052483,-0.00195257,0.00000003,0.00138467,0.0004
 5612,0.00000122,-0.13440760,0.13500632,-0.00015997,0.00007991,-0.04117
 579,0.00000684,-0.00000514,0.00480978,-0.00000542,-0.00000379,0.007933
 84,0.00000095,-0.00000054,-0.00111977,-0.00000847,-0.00000505,0.006536
 22,-0.00002232,0.00001379,0.00454752,0.00000054,0.00000302,-0.00411518
 ,0.00000233,0.00000003,-0.00022065,0.00000093,0.00000003,0.00010661,0.
 00018081,-0.00008442,0.02765369,0.00473810,0.00218231,0.00000146,-0.27
 016843,-0.12566180,-0.00021604,-0.01804306,-0.01622070,-0.00002120,-0.
 00325048,0.00385684,-0.00000791,0.00008520,0.00102165,0.00000120,0.001
 81858,0.00067185,-0.00000494,0.00015089,0.00043166,-0.00000005,0.00004
 519,-0.00018809,-0.00000006,-0.00002653,-0.00003234,0.00000011,0.00055
 478,-0.00041670,0.00000388,0.28407231,-0.02853426,-0.01111754,-0.00002
 647,-0.12560648,-0.13413823,-0.00012352,0.01471474,0.01207154,0.000013
 86,0.00333940,-0.00065291,0.00000082,0.00101503,-0.00094426,0.00000086
 ,0.00124352,-0.00557001,-0.00000210,-0.00166951,0.00065374,-0.00000127
 ,0.00035625,-0.00029941,0.00000020,-0.00014688,-0.00087322,-0.00000029
 ,0.00043305,0.00114374,0.00000160,0.13495824,0.13857754,-0.00000556,-0
 .00000158,0.00355170,-0.00021604,-0.00012357,-0.03898022,-0.00001413,-
 0.00001120,0.00355495,-0.00000803,0.00000124,0.00759669,0.00000119,0.0
 0000087,-0.00110428,-0.00000479,-0.00000258,0.00810012,-0.00000054,0.0
 0000043,0.00033638,0.00000007,-0.00000024,0.00006586,0.00000008,-0.000
 00019,-0.00016799,0.00000407,0.00000091,-0.00434511,0.00023945,0.00013
 494,0.02660170,-0.00469424,0.00289452,-0.00000941,0.00486056,0.0282021
 6,0.00000675,-0.06022833,0.00404463,-0.00001479,0.00548429,-0.02783996
 ,-0.00000554,-0.00448387,-0.00298775,-0.00001063,-0.00168664,-0.000035
 72,-0.00000053,-0.00039315,0.00003210,0.00000077,0.00030454,0.00002823
 ,0.00000011,0.00020707,-0.00002220,0.00000009,0.00018353,0.00128639,0.
 00000056,0.00095738,-0.00066125,0.00000393,0.05833621,0.00310685,0.000
 40886,0.00000085,-0.00259729,-0.01038765,-0.00000550,0.00400342,-0.343
 50028,-0.00006575,0.00303796,-0.01112648,-0.00000110,-0.00320502,0.000
 26033,-0.00000431,-0.00002242,0.00092622,0.00000043,0.00001244,-0.0000
 4344,0.00000031,-0.00002861,-0.00012897,-0.00000009,-0.00002119,-0.000
 13261,-0.00000007,-0.00026092,-0.00051473,-0.00000030,0.00025525,0.000
 70985,0.00000130,-0.00431481,0.36334215,-0.00000935,0.00000069,0.00773
 649,-0.00000026,0.00001942,0.00447857,-0.00001481,-0.00006570,-0.04082
 849,0.00000150,-0.00002613,0.00447989,-0.00001070,-0.00000413,0.007803
 61,-0.00000052,0.00000041,-0.00104575,0.00000077,0.00000033,-0.0013432
 8,0.00000010,-0.00000004,0.00017487,0.00000009,-0.00000007,0.00009513,
 0.00000020,0.00000095,-0.00014283,0.00000414,0.00000056,-0.00408404,0.
 00002443,0.00007319,0.02696064,0.00011017,-0.00104045,0.00000076,-0.00
 308161,-0.00390497,-0.00000956,-0.01810927,0.01546659,-0.00001402,-0.2
 7685550,0.12169697,-0.00016519,0.00397220,-0.00191111,-0.00000004,0.00
 188667,-0.00043300,-0.00000498,0.00014106,-0.00050234,-0.00000037,-0.0
 0004244,0.00008827,0.00000023,0.00007950,0.00017933,0.00000011,-0.0000
 0945,0.00007953,0.00000095,-0.00094483,0.00078287,-0.00000072,0.000948
 92,-0.00024811,0.00000408,0.29132523,-0.00097566,-0.00097647,-0.000000
 76,-0.00339256,-0.00087510,-0.00000469,-0.01554674,0.01208678,-0.00001
 065,0.12160778,-0.12745040,0.00007830,0.02890866,-0.01039573,0.0000202
 6,-0.00109767,-0.00568836,-0.00000398,0.00162269,0.00082053,0.00000141
 ,0.00028306,-0.00102709,0.00000005,-0.00031265,-0.00024369,-0.00000032
 ,0.00009985,0.00004125,0.00000035,-0.00081793,0.00043314,-0.00000060,0
 .00066164,0.00072505,0.00000165,-0.13063902,0.13142918,0.00000078,-0.0
 0000081,-0.00112248,-0.00000944,-0.00000510,0.00761647,-0.00002109,0.0
 0001448,0.00354691,-0.00016524,0.00007839,-0.03873839,0.00000701,-0.00
 000473,0.00347530,-0.00000514,-0.00000346,0.00790655,0.00000012,-0.000
 00032,0.00046346,0.00000027,-0.00000010,-0.00029924,0.,0.00000009,0.00
 000073,0.00000095,0.00000034,-0.00115438,-0.00000108,0.00000070,0.0001
 6011,0.00000428,0.00000091,-0.00415256,0.00018475,-0.00008193,0.026557
 21,-0.00310566,0.00406533,-0.00000713,0.00025692,0.00074738,0.00000130
 ,0.00148709,0.00095668,-0.00000497,0.00581137,0.00260178,0.00000143,-0
 .27187906,-0.12666963,-0.00021645,-0.01846879,-0.01568959,-0.00002149,
 -0.00228827,-0.00215439,0.00000101,0.00093874,0.00027312,0.00000034,0.
 00147410,-0.00061747,0.00000087,-0.00090826,-0.00091163,-0.00000135,-0
 .00000641,-0.00010802,0.00000096,0.00017387,0.00025583,0.00000029,0.00
 058968,-0.00042684,0.00000385,0.28533204,0.00371340,-0.00104285,0.0000
 0121,0.00090352,-0.00095217,0.00000078,0.00091447,-0.00549019,-0.00000
 232,-0.02703976,-0.00975584,-0.00002521,-0.12902261,-0.13539067,-0.000
 12618,0.01259953,0.01207626,0.00001212,0.00110704,0.00172875,0.0000022
 7,-0.00085804,0.00008316,-0.00000082,0.00025872,-0.00406391,-0.0000008
 1,0.00081815,0.00061732,0.00000069,-0.00007914,0.00004919,0.00000023,-
 0.00129930,-0.00056245,-0.00000116,0.00041150,0.00110195,0.00000157,0.
 13755814,0.14160037,-0.00000722,0.00000148,0.00683243,0.00000133,0.000
 00066,-0.00113495,-0.00000496,-0.00000227,0.00788546,-0.00000533,-0.00
 000124,0.00478060,-0.00021706,-0.00012425,-0.04040531,-0.00001496,-0.0
 0001081,0.00363535,0.00000179,-0.00000037,-0.00417804,0.00000006,0.000
 00010,0.00060734,0.00000106,-0.00000152,0.00023331,-0.00000096,-0.0000
 0071,0.00050556,0.00000096,0.00000020,-0.00121634,-0.00000006,0.000000
 10,-0.00011325,0.00000404,0.00000088,-0.00428593,0.00024073,0.00013760
 ,0.02698383,0.00054381,-0.00127953,-0.00000029,-0.00048447,-0.00017080
 ,-0.00000013,-0.00013661,0.00019368,-0.00000008,0.00037214,0.00016374,
 0.00000024,-0.00043408,0.00075515,0.00000002,-0.00612871,-0.00125471,-
 0.00000899,0.00884250,-0.05465152,-0.00000913,0.00028935,0.00774773,0.
 00000684,-0.06254014,0.10912107,-0.00001335,-0.00008995,-0.00008839,-0
 .00000024,0.00001731,-0.00011671,0.00000004,0.00002986,0.00002662,0.00
 000005,-0.00001033,0.00002540,-0.00000002,0.00059265,0.00001439,0.0000
 0059,0.05913667,0.00030060,-0.00076169,-0.00000007,-0.00052072,0.00021
 819,-0.00000028,0.00012529,0.00013172,0.00000013,0.00016109,0.00002785
 ,0.00000011,-0.00015624,0.00086889,0.00000013,-0.00301606,0.00176388,-
 0.00000316,-0.00795818,-0.03396528,-0.00001546,0.00915138,0.00298901,0
 .00000953,0.06239898,-0.48861646,-0.00006127,-0.00014350,-0.00008219,-
 0.00000018,0.00003890,-0.00004316,0.00000004,0.00001134,0.00002416,0.0
 0000002,-0.00002607,0.00001897,-0.00000002,0.00011931,0.00000108,0.000
 00013,-0.06048611,0.51742503,0.00000008,-0.00000138,0.00054072,-0.0000
 0024,0.,-0.00036112,-0.00000008,0.00000019,0.00001629,0.00000024,0.000
 00010,0.00012653,-0.00000021,0.00000089,-0.00023027,-0.00000939,-0.000
 00157,0.00446435,0.00000194,-0.00005409,0.00415586,0.00000711,0.000008
 45,-0.00578975,-0.00002436,-0.00002283,-0.01494241,-0.00000025,-0.0000
 0013,0.00018048,0.00000008,-0.00000009,-0.00006953,0.00000004,0.000000
 03,-0.00001900,-0.00000004,0.00000002,0.00002623,0.00000062,0.00000004
 ,-0.00013006,0.00002446,0.00007036,0.01203167\\-0.00015933,-0.00007621
 ,0.,-0.00001166,-0.00008239,-0.00000007,-0.00007487,-0.00007414,-0.000
 00009,0.00006741,0.00011309,-0.00000005,0.00023864,-0.00025484,0.00000
 021,0.00001178,0.00030934,0.00000100,-0.00023709,-0.00000556,-0.000003
 31,0.00009181,-0.00004009,0.00000123,0.00004575,0.00002428,0.00000099,
 0.00004543,0.00005287,0.00000005,0.00001327,0.00000930,-0.00000002,0.0
 0000870,0.00000763,0.00000004,0.00000410,0.00000990,0.00000002,-0.0000
 4112,0.00005621,0.,-0.00000282,-0.00004939,0.\\\@
 The archive entry for this job was punched.


 ABOVE ALL I AM AN OPTIMIST FOR NUMBER THEORY,
 AND I HOLD THE HOPE THAT WE MAY NOT BE FAR FROM
 A TIME WHEN IRREFUTABLE ARITHMETIC WILL CELEBRATE
 ITS TRIUMPHS IN PHYSICS AND CHEMISTRY.
   -- HERMANN MINKOWSKI, 1905
 Job cpu time:       0 days 11 hours  5 minutes  7.1 seconds.
 Elapsed time:       0 days  0 hours 16 minutes 38.5 seconds.
 File lengths (MBytes):  RWF=    333 Int=      0 D2E=      0 Chk=     25 Scr=      1
 Normal termination of Gaussian 16 at Mon Sep  5 20:28:53 2022.
