 Entering Gaussian System, Link 0=g16
 Initial command:
 /usr/local/gaussian16c01/g16/l1.exe "/scr/akj/Gau-20254.inp" -scrdir="/scr/akj/"
 Entering Link 1 = /usr/local/gaussian16c01/g16/l1.exe PID=     20255.
  
 Copyright (c) 1988-2019, Gaussian, Inc.  All Rights Reserved.
  
 This is part of the Gaussian(R) 16 program.  It is based on
 the Gaussian(R) 09 system (copyright 2009, Gaussian, Inc.),
 the Gaussian(R) 03 system (copyright 2003, Gaussian, Inc.),
 the Gaussian(R) 98 system (copyright 1998, Gaussian, Inc.),
 the Gaussian(R) 94 system (copyright 1995, Gaussian, Inc.),
 the Gaussian 92(TM) system (copyright 1992, Gaussian, Inc.),
 the Gaussian 90(TM) system (copyright 1990, Gaussian, Inc.),
 the Gaussian 88(TM) system (copyright 1988, Gaussian, Inc.),
 the Gaussian 86(TM) system (copyright 1986, Carnegie Mellon
 University), and the Gaussian 82(TM) system (copyright 1983,
 Carnegie Mellon University). Gaussian is a federally registered
 trademark of Gaussian, Inc.
  
 This software contains proprietary and confidential information,
 including trade secrets, belonging to Gaussian, Inc.
  
 This software is provided under written license and may be
 used, copied, transmitted, or stored only in accord with that
 written license.
  
 The following legend is applicable only to US Government
 contracts under FAR:
  
                    RESTRICTED RIGHTS LEGEND
  
 Use, reproduction and disclosure by the US Government is
 subject to restrictions as set forth in subparagraphs (a)
 and (c) of the Commercial Computer Software - Restricted
 Rights clause in FAR 52.227-19.
  
 Gaussian, Inc.
 340 Quinnipiac St., Bldg. 40, Wallingford CT 06492
  
  
 ---------------------------------------------------------------
 Warning -- This program may not be used in any manner that
 competes with the business of Gaussian, Inc. or will provide
 assistance to any competitor of Gaussian, Inc.  The licensee
 of this program is prohibited from giving any competitor of
 Gaussian, Inc. access to this program.  By using this program,
 the user acknowledges that Gaussian, Inc. is engaged in the
 business of creating and licensing software in the field of
 computational chemistry and represents and warrants to the
 licensee that it is not a competitor of Gaussian, Inc. and that
 it will not use this program in any manner prohibited above.
 ---------------------------------------------------------------
  

 Cite this work as:
 Gaussian 16, Revision C.01,
 M. J. Frisch, G. W. Trucks, H. B. Schlegel, G. E. Scuseria, 
 M. A. Robb, J. R. Cheeseman, G. Scalmani, V. Barone, 
 G. A. Petersson, H. Nakatsuji, X. Li, M. Caricato, A. V. Marenich, 
 J. Bloino, B. G. Janesko, R. Gomperts, B. Mennucci, H. P. Hratchian, 
 J. V. Ortiz, A. F. Izmaylov, J. L. Sonnenberg, D. Williams-Young, 
 F. Ding, F. Lipparini, F. Egidi, J. Goings, B. Peng, A. Petrone, 
 T. Henderson, D. Ranasinghe, V. G. Zakrzewski, J. Gao, N. Rega, 
 G. Zheng, W. Liang, M. Hada, M. Ehara, K. Toyota, R. Fukuda, 
 J. Hasegawa, M. Ishida, T. Nakajima, Y. Honda, O. Kitao, H. Nakai, 
 T. Vreven, K. Throssell, J. A. Montgomery, Jr., J. E. Peralta, 
 F. Ogliaro, M. J. Bearpark, J. J. Heyd, E. N. Brothers, K. N. Kudin, 
 V. N. Staroverov, T. A. Keith, R. Kobayashi, J. Normand, 
 K. Raghavachari, A. P. Rendell, J. C. Burant, S. S. Iyengar, 
 J. Tomasi, M. Cossi, J. M. Millam, M. Klene, C. Adamo, R. Cammi, 
 J. W. Ochterski, R. L. Martin, K. Morokuma, O. Farkas, 
 J. B. Foresman, and D. J. Fox, Gaussian, Inc., Wallingford CT, 2019.
 
 ******************************************
 Gaussian 16:  ES64L-G16RevC.01  3-Jul-2019
                27-Apr-2023 
 ******************************************
 %nprocshared=20
 Will use up to   20 processors via shared memory.
 %mem=10000MW
 %chk=CYH-183-A_eq00000.chk
 ------------------------------------
 # opt freq M062x/aug-cc-pvtz pop=nbo
 ------------------------------------
 1/18=20,19=15,26=3,38=1/1,3;
 2/9=110,12=2,17=6,18=5,40=1/2;
 3/5=16,6=1,7=10,11=2,25=1,30=1,71=1,74=-55/1,2,3;
 4//1;
 5/5=2,38=5/2;
 6/7=2,8=2,9=2,10=2,28=1,40=1/1,7;
 7//1,2,3,16;
 1/18=20,19=15,26=3/3(2);
 2/9=110/2;
 99//99;
 2/9=110/2;
 3/5=16,6=1,7=10,11=2,25=1,30=1,71=1,74=-55/1,2,3;
 4/5=5,16=3,69=1/1;
 5/5=2,38=5/2;
 7//1,2,3,16;
 1/18=20,19=15,26=3/3(-5);
 2/9=110/2;
 6/7=2,8=2,9=2,10=2,19=2,28=1,40=1/1,7;
 99/9=1/99;
 -----------------
 CYH-183-A_eq00000
 -----------------
 Symbolic Z-matrix:
 Charge =  0 Multiplicity = 1
 C                     0.87714   0.93531  -0.49416 
 C                     1.36979  -0.32686  -0.15715 
 C                     0.5001   -1.35543   0.11656 
 C                    -0.88392  -1.15326   0.0616 
 C                    -1.37736   0.10662  -0.27477 
 C                    -0.49956   1.13564  -0.54858 
 C                     1.769     2.06712  -0.79543 
 O                    -1.64705  -2.23416   0.34929 
 O                     1.39953   3.1781   -1.09204 
 O                     3.07655   1.75886  -0.71229 
 C                    -3.04975  -2.10795   0.3142 
 H                     2.43532  -0.48695  -0.11368 
 H                     0.86     -2.33771   0.37882 
 H                    -2.43852   0.29216  -0.32503 
 H                    -0.86823   2.11587  -0.81028 
 H                     3.60512   2.54423  -0.92142 
 H                    -3.43929  -3.09038   0.57578 
 H                    -3.40458  -1.37243   1.04263 
 H                    -3.40279  -1.83299  -0.68444 
 

 GradGradGradGradGradGradGradGradGradGradGradGradGradGradGradGradGradGrad
 Berny optimization.
 Initialization pass.
                           ----------------------------
                           !    Initial Parameters    !
                           ! (Angstroms and Degrees)  !
 --------------------------                            --------------------------
 ! Name  Definition              Value          Derivative Info.                !
 --------------------------------------------------------------------------------
 ! R1    R(1,2)                  1.3962         estimate D2E/DX2                !
 ! R2    R(1,6)                  1.3923         estimate D2E/DX2                !
 ! R3    R(1,7)                  1.4721         estimate D2E/DX2                !
 ! R4    R(2,3)                  1.3745         estimate D2E/DX2                !
 ! R5    R(2,12)                 1.0784         estimate D2E/DX2                !
 ! R6    R(3,4)                  1.3998         estimate D2E/DX2                !
 ! R7    R(3,13)                 1.0785         estimate D2E/DX2                !
 ! R8    R(4,5)                  1.3942         estimate D2E/DX2                !
 ! R9    R(4,8)                  1.3541         estimate D2E/DX2                !
 ! R10   R(5,6)                  1.38           estimate D2E/DX2                !
 ! R11   R(5,14)                 1.0784         estimate D2E/DX2                !
 ! R12   R(6,15)                 1.0795         estimate D2E/DX2                !
 ! R13   R(7,9)                  1.2078         estimate D2E/DX2                !
 ! R14   R(7,10)                 1.346          estimate D2E/DX2                !
 ! R15   R(8,11)                 1.4088         estimate D2E/DX2                !
 ! R16   R(10,16)                0.9695         estimate D2E/DX2                !
 ! R17   R(11,17)                1.0887         estimate D2E/DX2                !
 ! R18   R(11,18)                1.0943         estimate D2E/DX2                !
 ! R19   R(11,19)                1.0943         estimate D2E/DX2                !
 ! A1    A(2,1,6)              119.2366         estimate D2E/DX2                !
 ! A2    A(2,1,7)              122.0497         estimate D2E/DX2                !
 ! A3    A(6,1,7)              118.7137         estimate D2E/DX2                !
 ! A4    A(1,2,3)              120.0857         estimate D2E/DX2                !
 ! A5    A(1,2,12)             119.5108         estimate D2E/DX2                !
 ! A6    A(3,2,12)             120.4035         estimate D2E/DX2                !
 ! A7    A(2,3,4)              120.6445         estimate D2E/DX2                !
 ! A8    A(2,3,13)             121.2538         estimate D2E/DX2                !
 ! A9    A(4,3,13)             118.1017         estimate D2E/DX2                !
 ! A10   A(3,4,5)              119.3345         estimate D2E/DX2                !
 ! A11   A(3,4,8)              115.6964         estimate D2E/DX2                !
 ! A12   A(5,4,8)              124.9691         estimate D2E/DX2                !
 ! A13   A(4,5,6)              119.7723         estimate D2E/DX2                !
 ! A14   A(4,5,14)             120.9939         estimate D2E/DX2                !
 ! A15   A(6,5,14)             119.2338         estimate D2E/DX2                !
 ! A16   A(1,6,5)              120.9264         estimate D2E/DX2                !
 ! A17   A(1,6,15)             118.545          estimate D2E/DX2                !
 ! A18   A(5,6,15)             120.5286         estimate D2E/DX2                !
 ! A19   A(1,7,9)              124.8989         estimate D2E/DX2                !
 ! A20   A(1,7,10)             113.5662         estimate D2E/DX2                !
 ! A21   A(9,7,10)             121.5349         estimate D2E/DX2                !
 ! A22   A(4,8,11)             118.9693         estimate D2E/DX2                !
 ! A23   A(7,10,16)            109.3164         estimate D2E/DX2                !
 ! A24   A(8,11,17)            105.6297         estimate D2E/DX2                !
 ! A25   A(8,11,18)            111.4985         estimate D2E/DX2                !
 ! A26   A(8,11,19)            111.4972         estimate D2E/DX2                !
 ! A27   A(17,11,18)           109.3025         estimate D2E/DX2                !
 ! A28   A(17,11,19)           109.3028         estimate D2E/DX2                !
 ! A29   A(18,11,19)           109.5102         estimate D2E/DX2                !
 ! D1    D(6,1,2,3)              0.0011         estimate D2E/DX2                !
 ! D2    D(6,1,2,12)          -179.9997         estimate D2E/DX2                !
 ! D3    D(7,1,2,3)           -179.9982         estimate D2E/DX2                !
 ! D4    D(7,1,2,12)             0.001          estimate D2E/DX2                !
 ! D5    D(2,1,6,5)             -0.0019         estimate D2E/DX2                !
 ! D6    D(2,1,6,15)           179.9988         estimate D2E/DX2                !
 ! D7    D(7,1,6,5)            179.9974         estimate D2E/DX2                !
 ! D8    D(7,1,6,15)            -0.0019         estimate D2E/DX2                !
 ! D9    D(2,1,7,9)            179.9997         estimate D2E/DX2                !
 ! D10   D(2,1,7,10)             0.0002         estimate D2E/DX2                !
 ! D11   D(6,1,7,9)              0.0004         estimate D2E/DX2                !
 ! D12   D(6,1,7,10)          -179.9991         estimate D2E/DX2                !
 ! D13   D(1,2,3,4)              0.001          estimate D2E/DX2                !
 ! D14   D(1,2,3,13)           179.9996         estimate D2E/DX2                !
 ! D15   D(12,2,3,4)          -179.9982         estimate D2E/DX2                !
 ! D16   D(12,2,3,13)            0.0004         estimate D2E/DX2                !
 ! D17   D(2,3,4,5)             -0.0022         estimate D2E/DX2                !
 ! D18   D(2,3,4,8)            179.9973         estimate D2E/DX2                !
 ! D19   D(13,3,4,5)           179.9992         estimate D2E/DX2                !
 ! D20   D(13,3,4,8)            -0.0014         estimate D2E/DX2                !
 ! D21   D(3,4,5,6)              0.0013         estimate D2E/DX2                !
 ! D22   D(3,4,5,14)          -179.9985         estimate D2E/DX2                !
 ! D23   D(8,4,5,6)           -179.9981         estimate D2E/DX2                !
 ! D24   D(8,4,5,14)             0.0021         estimate D2E/DX2                !
 ! D25   D(3,4,8,11)          -179.9831         estimate D2E/DX2                !
 ! D26   D(5,4,8,11)             0.0163         estimate D2E/DX2                !
 ! D27   D(4,5,6,1)              0.0007         estimate D2E/DX2                !
 ! D28   D(4,5,6,15)           179.9999         estimate D2E/DX2                !
 ! D29   D(14,5,6,1)          -179.9995         estimate D2E/DX2                !
 ! D30   D(14,5,6,15)           -0.0002         estimate D2E/DX2                !
 ! D31   D(1,7,10,16)          179.9994         estimate D2E/DX2                !
 ! D32   D(9,7,10,16)           -0.0001         estimate D2E/DX2                !
 ! D33   D(4,8,11,17)          179.9896         estimate D2E/DX2                !
 ! D34   D(4,8,11,18)          -61.3832         estimate D2E/DX2                !
 ! D35   D(4,8,11,19)           61.3628         estimate D2E/DX2                !
 --------------------------------------------------------------------------------
 Trust Radius=3.00D-01 FncErr=1.00D-07 GrdErr=1.00D-06 EigMax=2.50D+02 EigMin=1.00D-04
 Number of steps in this run=     93 maximum allowed number of steps=    114.
 GradGradGradGradGradGradGradGradGradGradGradGradGradGradGradGradGradGrad

                          Input orientation:                          
 ---------------------------------------------------------------------
 Center     Atomic      Atomic             Coordinates (Angstroms)
 Number     Number       Type             X           Y           Z
 ---------------------------------------------------------------------
      1          6           0        0.877144    0.935311   -0.494162
      2          6           0        1.369795   -0.326861   -0.157148
      3          6           0        0.500097   -1.355432    0.116561
      4          6           0       -0.883924   -1.153258    0.061602
      5          6           0       -1.377361    0.106621   -0.274774
      6          6           0       -0.499558    1.135638   -0.548578
      7          6           0        1.769000    2.067124   -0.795433
      8          8           0       -1.647054   -2.234156    0.349288
      9          8           0        1.399530    3.178100   -1.092036
     10          8           0        3.076546    1.758857   -0.712294
     11          6           0       -3.049748   -2.107948    0.314196
     12          1           0        2.435319   -0.486950   -0.113682
     13          1           0        0.860000   -2.337708    0.378815
     14          1           0       -2.438521    0.292156   -0.325028
     15          1           0       -0.868234    2.115870   -0.810281
     16          1           0        3.605122    2.544229   -0.921421
     17          1           0       -3.439288   -3.090375    0.575783
     18          1           0       -3.404578   -1.372427    1.042633
     19          1           0       -3.402787   -1.832991   -0.684442
 ---------------------------------------------------------------------
                    Distance matrix (angstroms):
                    1          2          3          4          5
     1  C    0.000000
     2  C    1.396195   0.000000
     3  C    2.400552   1.374500   0.000000
     4  C    2.787894   2.410401   1.399788   0.000000
     5  C    2.411981   2.783632   2.411553   1.394247   0.000000
     6  C    1.392264   2.405535   2.765348   2.399813   1.379995
     7  C    1.472132   2.509569   3.762411   4.259504   3.743561
     8  O    4.138660   3.604945   2.331646   1.354058   2.437504
     9  O    2.379169   3.627623   4.777300   5.030477   4.220548
    10  O    2.358639   2.751618   4.126001   4.976409   4.770597
    11  C    5.033423   4.788193   3.634107   2.380343   2.836913
    12  H    2.143712   1.078360   2.133626   3.389995   3.861970
    13  H    3.387482   2.142581   1.078505   2.131857   3.377529
    14  H    3.381699   3.861947   3.397796   2.157655   1.078429
    15  H    2.130726   3.376728   3.844646   3.383434   2.140809
    16  H    3.195784   3.718058   5.091752   5.898243   5.584373
    17  H    5.998543   5.594772   4.328933   3.247567   3.898175
    18  H    5.101032   5.032625   4.013026   2.713697   2.834210
    19  H    5.100735   5.032296   4.012750   2.713538   2.834125
                    6          7          8          9         10
     6  C    0.000000
     7  C    2.464743   0.000000
     8  O    3.671298   5.610778   0.000000
     9  O    2.841396   1.207787   6.375861   0.000000
    10  O    3.633692   1.345963   6.275628   2.229537   0.000000
    11  C    4.215294   6.471695   1.408797   7.050948   7.316921
    12  H    3.381631   2.726180   4.464621   3.932254   2.411048
    13  H    3.843513   4.648407   2.509365   5.733989   4.783873
    14  H    2.126269   4.590755   2.731917   4.862881   5.719891
    15  H    1.079474   2.637727   4.568795   2.520014   3.962114
    16  H    4.355632   1.901274   7.213392   2.301203   0.969503
    17  H    5.269288   7.456963   1.999128   8.092562   8.223763
    18  H    4.154694   6.478804   2.076582   6.952953   7.408756
    19  H    4.154510   6.478471   2.076566   6.952655   7.408366
                   11         12         13         14         15
    11  C    0.000000
    12  H    5.735562   0.000000
    13  H    3.917026   2.479817   0.000000
    14  H    2.557870   4.940242   4.276893   0.000000
    15  H    4.885088   4.263025   4.922916   2.455037   0.000000
    16  H    8.213208   3.347973   5.749750   6.477124   4.495193
    17  H    1.088730   6.462522   4.369116   3.640674   5.969630
    18  H    1.094310   6.018765   4.422560   2.361058   4.694097
    19  H    1.094311   6.018394   4.422285   2.361193   4.693963
                   16         17         18         19
    16  H    0.000000
    17  H    9.144074   0.000000
    18  H    8.266413   1.780590   0.000000
    19  H    8.266014   1.780594   1.787431   0.000000
 Stoichiometry    C8H8O3
 Framework group  C1[X(C8H8O3)]
 Deg. of freedom    51
 Full point group                 C1      NOp   1
 Largest Abelian subgroup         C1      NOp   1
 Largest concise Abelian subgroup C1      NOp   1
                         Standard orientation:                         
 ---------------------------------------------------------------------
 Center     Atomic      Atomic             Coordinates (Angstroms)
 Number     Number       Type             X           Y           Z
 ---------------------------------------------------------------------
      1          6           0        1.110586   -0.022429   -0.000045
      2          6           0        0.543244    1.253300   -0.000035
      3          6           0       -0.823448    1.399598   -0.000076
      4          6           0       -1.661065    0.278079   -0.000107
      5          6           0       -1.095954   -0.996509   -0.000142
      6          6           0        0.276826   -1.137437   -0.000118
      7          6           0        2.568125   -0.229194    0.000037
      8          8           0       -2.989982    0.537793   -0.000088
      9          8           0        3.113157   -1.307012    0.000039
     10          8           0        3.274197    0.916702    0.000124
     11          6           0       -3.896055   -0.540976    0.000248
     12          1           0        1.184881    2.119995    0.000017
     13          1           0       -1.281695    2.375909   -0.000063
     14          1           0       -1.715982   -1.878878   -0.000190
     15          1           0        0.727342   -2.118406   -0.000144
     16          1           0        4.221359    0.709774    0.000184
     17          1           0       -4.887562   -0.091256    0.000387
     18          1           0       -3.780628   -1.161933   -0.893398
     19          1           0       -3.780250   -1.161664    0.894033
 ---------------------------------------------------------------------
 Rotational constants (GHZ):           3.5301416           0.5714349           0.4933681
 Standard basis: Aug-CC-pVTZ (5D, 7F)
 There are   805 symmetry adapted cartesian basis functions of A   symmetry.
 There are   690 symmetry adapted basis functions of A   symmetry.
   690 basis functions,  1008 primitive gaussians,   805 cartesian basis functions
    40 alpha electrons       40 beta electrons
       nuclear repulsion energy       577.2024586637 Hartrees.
 NAtoms=   19 NActive=   19 NUniq=   19 SFac= 1.00D+00 NAtFMM=   60 NAOKFM=F Big=F
 Integral buffers will be    131072 words long.
 Raffenetti 2 integral format.
 Two-electron integral symmetry is turned on.
 One-electron integrals computed using PRISM.
 NBasis=   690 RedAO= T EigKep=  1.02D-06  NBF=   690
 NBsUse=   688 1.00D-06 EigRej=  6.00D-07 NBFU=   688
 ExpMin= 2.53D-02 ExpMax= 1.53D+04 ExpMxC= 5.22D+02 IAcc=3 IRadAn=         5 AccDes= 0.00D+00
 Harris functional with IExCor= 1009 and IRadAn=       5 diagonalized for initial guess.
 HarFok:  IExCor= 1009 AccDes= 0.00D+00 IRadAn=         5 IDoV= 1 UseB2=F ITyADJ=14
 ICtDFT=  3500011 ScaDFX=  1.000000  1.000000  1.000000  1.000000
 FoFCou: FMM=F IPFlag=           0 FMFlag=      100000 FMFlg1=           0
         NFxFlg=           0 DoJE=T BraDBF=F KetDBF=T FulRan=T
         wScrn=  0.000000 ICntrl=       500 IOpCl=  0 I1Cent=   200000004 NGrid=           0
         NMat0=    1 NMatS0=      1 NMatT0=    0 NMatD0=    1 NMtDS0=    0 NMtDT0=    0
 Petite list used in FoFCou.
 Requested convergence on RMS density matrix=1.00D-08 within 128 cycles.
 Requested convergence on MAX density matrix=1.00D-06.
 Requested convergence on             energy=1.00D-06.
 No special actions if energy rises.
 SCF Done:  E(RM062X) =  -535.346693314     A.U. after   14 cycles
            NFock= 14  Conv=0.32D-08     -V/T= 2.0051

 **********************************************************************

            Population analysis using the SCF Density.

 **********************************************************************

 Orbital symmetries:
       Occupied  (A) (A) (A) (A) (A) (A) (A) (A) (A) (A) (A) (A)
                 (A) (A) (A) (A) (A) (A) (A) (A) (A) (A) (A) (A)
                 (A) (A) (A) (A) (A) (A) (A) (A) (A) (A) (A) (A)
                 (A) (A) (A) (A)
       Virtual   (A) (A) (A) (A) (A) (A) (A) (A) (A) (A) (A) (A)
                 (A) (A) (A) (A) (A) (A) (A) (A) (A) (A) (A) (A)
                 (A) (A) (A) (A) (A) (A) (A) (A) (A) (A) (A) (A)
                 (A) (A) (A) (A) (A) (A) (A) (A) (A) (A) (A) (A)
                 (A) (A) (A) (A) (A) (A) (A) (A) (A) (A) (A) (A)
                 (A) (A) (A) (A) (A) (A) (A) (A) (A) (A) (A) (A)
                 (A) (A) (A) (A) (A) (A) (A) (A) (A) (A) (A) (A)
                 (A) (A) (A) (A) (A) (A) (A) (A) (A) (A) (A) (A)
                 (A) (A) (A) (A) (A) (A) (A) (A) (A) (A) (A) (A)
                 (A) (A) (A) (A) (A) (A) (A) (A) (A) (A) (A) (A)
                 (A) (A) (A) (A) (A) (A) (A) (A) (A) (A) (A) (A)
                 (A) (A) (A) (A) (A) (A) (A) (A) (A) (A) (A) (A)
                 (A) (A) (A) (A) (A) (A) (A) (A) (A) (A) (A) (A)
                 (A) (A) (A) (A) (A) (A) (A) (A) (A) (A) (A) (A)
                 (A) (A) (A) (A) (A) (A) (A) (A) (A) (A) (A) (A)
                 (A) (A) (A) (A) (A) (A) (A) (A) (A) (A) (A) (A)
                 (A) (A) (A) (A) (A) (A) (A) (A) (A) (A) (A) (A)
                 (A) (A) (A) (A) (A) (A) (A) (A) (A) (A) (A) (A)
                 (A) (A) (A) (A) (A) (A) (A) (A) (A) (A) (A) (A)
                 (A) (A) (A) (A) (A) (A) (A) (A) (A) (A) (A) (A)
                 (A) (A) (A) (A) (A) (A) (A) (A) (A) (A) (A) (A)
                 (A) (A) (A) (A) (A) (A) (A) (A) (A) (A) (A) (A)
                 (A) (A) (A) (A) (A) (A) (A) (A) (A) (A) (A) (A)
                 (A) (A) (A) (A) (A) (A) (A) (A) (A) (A) (A) (A)
                 (A) (A) (A) (A) (A) (A) (A) (A) (A) (A) (A) (A)
                 (A) (A) (A) (A) (A) (A) (A) (A) (A) (A) (A) (A)
                 (A) (A) (A) (A) (A) (A) (A) (A) (A) (A) (A) (A)
                 (A) (A) (A) (A) (A) (A) (A) (A) (A) (A) (A) (A)
                 (A) (A) (A) (A) (A) (A) (A) (A) (A) (A) (A) (A)
                 (A) (A) (A) (A) (A) (A) (A) (A) (A) (A) (A) (A)
                 (A) (A) (A) (A) (A) (A) (A) (A) (A) (A) (A) (A)
                 (A) (A) (A) (A) (A) (A) (A) (A) (A) (A) (A) (A)
                 (A) (A) (A) (A) (A) (A) (A) (A) (A) (A) (A) (A)
                 (A) (A) (A) (A) (A) (A) (A) (A) (A) (A) (A) (A)
                 (A) (A) (A) (A) (A) (A) (A) (A) (A) (A) (A) (A)
                 (A) (A) (A) (A) (A) (A) (A) (A) (A) (A) (A) (A)
                 (A) (A) (A) (A) (A) (A) (A) (A) (A) (A) (A) (A)
                 (A) (A) (A) (A) (A) (A) (A) (A) (A) (A) (A) (A)
                 (A) (A) (A) (A) (A) (A) (A) (A) (A) (A) (A) (A)
                 (A) (A) (A) (A) (A) (A) (A) (A) (A) (A) (A) (A)
                 (A) (A) (A) (A) (A) (A) (A) (A) (A) (A) (A) (A)
                 (A) (A) (A) (A) (A) (A) (A) (A) (A) (A) (A) (A)
                 (A) (A) (A) (A) (A) (A) (A) (A) (A) (A) (A) (A)
                 (A) (A) (A) (A) (A) (A) (A) (A) (A) (A) (A) (A)
                 (A) (A) (A) (A) (A) (A) (A) (A) (A) (A) (A) (A)
                 (A) (A) (A) (A) (A) (A) (A) (A) (A) (A) (A) (A)
                 (A) (A) (A) (A) (A) (A) (A) (A) (A) (A) (A) (A)
                 (A) (A) (A) (A) (A) (A) (A) (A) (A) (A) (A) (A)
                 (A) (A) (A) (A) (A) (A) (A) (A) (A) (A) (A) (A)
                 (A) (A) (A) (A) (A) (A) (A) (A) (A) (A) (A) (A)
                 (A) (A) (A) (A) (A) (A) (A) (A) (A) (A) (A) (A)
                 (A) (A) (A) (A) (A) (A) (A) (A) (A) (A) (A) (A)
                 (A) (A) (A) (A) (A) (A) (A) (A) (A) (A) (A) (A)
                 (A) (A) (A) (A) (A) (A) (A) (A) (A) (A) (A) (A)
 The electronic state is 1-A.
 Alpha  occ. eigenvalues --  -19.67297 -19.67214 -19.61218 -10.67736 -10.62315
 Alpha  occ. eigenvalues --  -10.60296 -10.55974 -10.55907 -10.55654 -10.55380
 Alpha  occ. eigenvalues --  -10.54918  -1.23755  -1.21260  -1.13861  -0.98013
 Alpha  occ. eigenvalues --   -0.88271  -0.86566  -0.81550  -0.74738  -0.70840
 Alpha  occ. eigenvalues --   -0.67748  -0.63186  -0.60162  -0.58149  -0.56716
 Alpha  occ. eigenvalues --   -0.56378  -0.53986  -0.53260  -0.50520  -0.49965
 Alpha  occ. eigenvalues --   -0.49322  -0.46505  -0.45651  -0.44008  -0.41204
 Alpha  occ. eigenvalues --   -0.40334  -0.39566  -0.35917  -0.32682  -0.29403
 Alpha virt. eigenvalues --   -0.01699  -0.00932  -0.00152   0.00643   0.00827
 Alpha virt. eigenvalues --    0.01343   0.01481   0.02404   0.03436   0.03694
 Alpha virt. eigenvalues --    0.04025   0.04795   0.05775   0.05957   0.07172
 Alpha virt. eigenvalues --    0.07369   0.07972   0.08017   0.08237   0.08572
 Alpha virt. eigenvalues --    0.08736   0.09427   0.09617   0.09730   0.10482
 Alpha virt. eigenvalues --    0.10601   0.10773   0.11003   0.11109   0.11379
 Alpha virt. eigenvalues --    0.12780   0.13068   0.13236   0.13449   0.13885
 Alpha virt. eigenvalues --    0.15005   0.15743   0.16483   0.17239   0.17781
 Alpha virt. eigenvalues --    0.17986   0.18792   0.19523   0.19720   0.19874
 Alpha virt. eigenvalues --    0.20477   0.20771   0.20924   0.21326   0.21707
 Alpha virt. eigenvalues --    0.21966   0.22818   0.23072   0.23515   0.23942
 Alpha virt. eigenvalues --    0.23942   0.24417   0.25000   0.25540   0.25737
 Alpha virt. eigenvalues --    0.25890   0.26873   0.26918   0.27884   0.27928
 Alpha virt. eigenvalues --    0.28370   0.28784   0.28856   0.29762   0.30400
 Alpha virt. eigenvalues --    0.30664   0.31006   0.31859   0.32771   0.32963
 Alpha virt. eigenvalues --    0.33417   0.33804   0.34268   0.34389   0.35320
 Alpha virt. eigenvalues --    0.35414   0.35438   0.36228   0.36463   0.36878
 Alpha virt. eigenvalues --    0.37304   0.37538   0.37651   0.37977   0.38160
 Alpha virt. eigenvalues --    0.38545   0.39072   0.39844   0.40143   0.40260
 Alpha virt. eigenvalues --    0.40462   0.41539   0.41998   0.42013   0.42855
 Alpha virt. eigenvalues --    0.43385   0.43646   0.43880   0.44157   0.45498
 Alpha virt. eigenvalues --    0.45690   0.45970   0.46199   0.46976   0.48307
 Alpha virt. eigenvalues --    0.48429   0.49035   0.49200   0.51195   0.52509
 Alpha virt. eigenvalues --    0.52782   0.53193   0.53643   0.53854   0.54583
 Alpha virt. eigenvalues --    0.55396   0.55413   0.56042   0.56577   0.56794
 Alpha virt. eigenvalues --    0.57821   0.59174   0.59677   0.59874   0.60377
 Alpha virt. eigenvalues --    0.61594   0.62885   0.63336   0.64292   0.64576
 Alpha virt. eigenvalues --    0.65542   0.65949   0.67603   0.67865   0.68143
 Alpha virt. eigenvalues --    0.68662   0.69173   0.69464   0.71379   0.71598
 Alpha virt. eigenvalues --    0.71936   0.72061   0.72701   0.73596   0.74499
 Alpha virt. eigenvalues --    0.75167   0.75708   0.75932   0.75985   0.76828
 Alpha virt. eigenvalues --    0.76859   0.77227   0.77706   0.78384   0.78430
 Alpha virt. eigenvalues --    0.78799   0.79188   0.79455   0.80619   0.80720
 Alpha virt. eigenvalues --    0.81003   0.81045   0.82731   0.82999   0.83211
 Alpha virt. eigenvalues --    0.84008   0.84413   0.85300   0.85993   0.86994
 Alpha virt. eigenvalues --    0.87049   0.87570   0.88093   0.88725   0.89316
 Alpha virt. eigenvalues --    0.89881   0.89900   0.91072   0.91073   0.91459
 Alpha virt. eigenvalues --    0.92845   0.92905   0.93733   0.94455   0.94590
 Alpha virt. eigenvalues --    0.95179   0.95317   0.96381   0.96686   0.97330
 Alpha virt. eigenvalues --    0.98093   0.98602   0.99785   1.00209   1.00370
 Alpha virt. eigenvalues --    1.00524   1.01616   1.01742   1.02309   1.03279
 Alpha virt. eigenvalues --    1.03408   1.03957   1.04495   1.05607   1.05853
 Alpha virt. eigenvalues --    1.06179   1.06838   1.07412   1.07472   1.08879
 Alpha virt. eigenvalues --    1.09279   1.09902   1.10359   1.11025   1.11811
 Alpha virt. eigenvalues --    1.13058   1.13335   1.13869   1.14205   1.14258
 Alpha virt. eigenvalues --    1.15846   1.16881   1.18033   1.18668   1.19127
 Alpha virt. eigenvalues --    1.19200   1.20651   1.21700   1.22339   1.23765
 Alpha virt. eigenvalues --    1.24804   1.24938   1.26450   1.26773   1.27874
 Alpha virt. eigenvalues --    1.28646   1.28938   1.31264   1.31718   1.31961
 Alpha virt. eigenvalues --    1.32953   1.34031   1.34610   1.34680   1.36090
 Alpha virt. eigenvalues --    1.37433   1.37883   1.39144   1.39218   1.40127
 Alpha virt. eigenvalues --    1.41297   1.42934   1.42951   1.44325   1.44386
 Alpha virt. eigenvalues --    1.45136   1.45618   1.46422   1.47019   1.47949
 Alpha virt. eigenvalues --    1.48236   1.48642   1.50638   1.51348   1.51821
 Alpha virt. eigenvalues --    1.53119   1.53237   1.53631   1.54746   1.55802
 Alpha virt. eigenvalues --    1.56103   1.56807   1.59047   1.59520   1.59559
 Alpha virt. eigenvalues --    1.60257   1.60512   1.63073   1.63976   1.64403
 Alpha virt. eigenvalues --    1.65037   1.66202   1.67299   1.67896   1.68783
 Alpha virt. eigenvalues --    1.68991   1.70428   1.71121   1.71517   1.72143
 Alpha virt. eigenvalues --    1.73081   1.73382   1.75679   1.76119   1.76134
 Alpha virt. eigenvalues --    1.77663   1.78695   1.79033   1.80278   1.80896
 Alpha virt. eigenvalues --    1.81843   1.83267   1.84669   1.85014   1.86029
 Alpha virt. eigenvalues --    1.86972   1.87820   1.88654   1.89558   1.89770
 Alpha virt. eigenvalues --    1.90432   1.91947   1.92753   1.93267   1.93747
 Alpha virt. eigenvalues --    1.95606   1.96698   1.98044   1.98096   1.99075
 Alpha virt. eigenvalues --    2.00704   2.01210   2.02901   2.03307   2.03864
 Alpha virt. eigenvalues --    2.06961   2.07888   2.07907   2.08308   2.10741
 Alpha virt. eigenvalues --    2.10852   2.13181   2.14548   2.16023   2.16777
 Alpha virt. eigenvalues --    2.17865   2.18992   2.21460   2.23240   2.23335
 Alpha virt. eigenvalues --    2.24692   2.25212   2.25540   2.28119   2.30318
 Alpha virt. eigenvalues --    2.31345   2.32786   2.34776   2.35782   2.37251
 Alpha virt. eigenvalues --    2.37316   2.39154   2.39417   2.39538   2.40154
 Alpha virt. eigenvalues --    2.43783   2.46098   2.46336   2.46452   2.48634
 Alpha virt. eigenvalues --    2.50286   2.52004   2.52325   2.53829   2.54721
 Alpha virt. eigenvalues --    2.54741   2.55538   2.57025   2.57505   2.60247
 Alpha virt. eigenvalues --    2.63673   2.66484   2.67060   2.68421   2.70397
 Alpha virt. eigenvalues --    2.71670   2.73418   2.75456   2.76225   2.77463
 Alpha virt. eigenvalues --    2.78198   2.79298   2.80948   2.83979   2.86425
 Alpha virt. eigenvalues --    2.89195   2.91561   2.93747   2.94334   2.96029
 Alpha virt. eigenvalues --    2.96515   2.97465   2.99840   3.00931   3.01645
 Alpha virt. eigenvalues --    3.03216   3.03485   3.04190   3.06439   3.08009
 Alpha virt. eigenvalues --    3.10944   3.11350   3.12400   3.13313   3.13787
 Alpha virt. eigenvalues --    3.14259   3.14904   3.16208   3.17515   3.18729
 Alpha virt. eigenvalues --    3.21088   3.21553   3.22752   3.24006   3.25653
 Alpha virt. eigenvalues --    3.26078   3.27070   3.28145   3.30000   3.31011
 Alpha virt. eigenvalues --    3.31051   3.32512   3.32601   3.34307   3.35318
 Alpha virt. eigenvalues --    3.35570   3.35831   3.38674   3.40671   3.42546
 Alpha virt. eigenvalues --    3.42812   3.44554   3.45149   3.45542   3.46919
 Alpha virt. eigenvalues --    3.47672   3.48051   3.51122   3.52637   3.53544
 Alpha virt. eigenvalues --    3.53793   3.54204   3.55726   3.56026   3.57275
 Alpha virt. eigenvalues --    3.57693   3.59304   3.61792   3.62423   3.63147
 Alpha virt. eigenvalues --    3.64005   3.64696   3.65701   3.66785   3.66964
 Alpha virt. eigenvalues --    3.69424   3.70204   3.70286   3.71043   3.75455
 Alpha virt. eigenvalues --    3.75968   3.77069   3.77214   3.79257   3.79486
 Alpha virt. eigenvalues --    3.80985   3.82109   3.83859   3.86053   3.86181
 Alpha virt. eigenvalues --    3.87693   3.89203   3.89246   3.90703   3.91997
 Alpha virt. eigenvalues --    3.92391   3.92966   3.93133   3.95323   3.96058
 Alpha virt. eigenvalues --    3.96063   3.98904   3.99283   3.99799   4.00718
 Alpha virt. eigenvalues --    4.01196   4.04080   4.04515   4.05021   4.06908
 Alpha virt. eigenvalues --    4.07275   4.08378   4.09975   4.11182   4.11287
 Alpha virt. eigenvalues --    4.13735   4.13750   4.15700   4.16922   4.20147
 Alpha virt. eigenvalues --    4.20531   4.21294   4.22386   4.25142   4.25718
 Alpha virt. eigenvalues --    4.27394   4.28485   4.28910   4.31313   4.33576
 Alpha virt. eigenvalues --    4.34027   4.36488   4.37973   4.38591   4.40023
 Alpha virt. eigenvalues --    4.43449   4.44698   4.44913   4.47327   4.49216
 Alpha virt. eigenvalues --    4.49405   4.49643   4.52661   4.54979   4.55025
 Alpha virt. eigenvalues --    4.58196   4.59611   4.60873   4.60890   4.62602
 Alpha virt. eigenvalues --    4.64874   4.65268   4.65626   4.66479   4.70237
 Alpha virt. eigenvalues --    4.70903   4.71926   4.72568   4.73490   4.77276
 Alpha virt. eigenvalues --    4.77513   4.78074   4.80146   4.81845   4.84142
 Alpha virt. eigenvalues --    4.86232   4.89871   4.92604   4.93224   4.95571
 Alpha virt. eigenvalues --    4.95944   4.98648   4.99696   5.03241   5.04318
 Alpha virt. eigenvalues --    5.06258   5.06714   5.07611   5.10177   5.15143
 Alpha virt. eigenvalues --    5.17592   5.19959   5.20888   5.26142   5.26832
 Alpha virt. eigenvalues --    5.27064   5.31485   5.34313   5.34691   5.39029
 Alpha virt. eigenvalues --    5.40503   5.51123   5.54674   5.61745   5.62886
 Alpha virt. eigenvalues --    5.66564   5.69341   5.70230   5.73911   5.76281
 Alpha virt. eigenvalues --    5.82690   5.86609   5.91482   5.93171   6.00683
 Alpha virt. eigenvalues --    6.07084   6.09899   6.11518   6.21482   6.22569
 Alpha virt. eigenvalues --    6.23048   6.26454   6.33046   6.35555   6.37379
 Alpha virt. eigenvalues --    6.40209   6.40462   6.45297   6.48695   6.50487
 Alpha virt. eigenvalues --    6.52479   6.56451   6.58221   6.59006   6.64514
 Alpha virt. eigenvalues --    6.66142   6.70336   6.71632   6.76482   6.80538
 Alpha virt. eigenvalues --    6.82808   6.85039   6.87512   6.91309   6.93328
 Alpha virt. eigenvalues --    7.01467   7.01977   7.06305   7.08786   7.13710
 Alpha virt. eigenvalues --    7.15970   7.27416   7.33558   7.34537   7.35976
 Alpha virt. eigenvalues --    7.37071   7.48573   7.60670   7.82032   7.85930
 Alpha virt. eigenvalues --    8.01768   8.05918  15.03706  15.09581  15.90820
 Alpha virt. eigenvalues --   16.18317  16.50070  17.52678  18.10513  18.79081
 Alpha virt. eigenvalues --   19.17807  19.59085  19.98167
          Condensed to atoms (all electrons):
               1          2          3          4          5          6
     1  C    6.471805  -0.351058   0.046957  -0.365853   0.195571  -0.655811
     2  C   -0.351058   7.323917  -0.032701  -0.028786  -0.345378   0.103736
     3  C    0.046957  -0.032701   7.454747  -0.254500  -0.037037  -0.285128
     4  C   -0.365853  -0.028786  -0.254500   6.451569  -0.304394   0.084873
     5  C    0.195571  -0.345378  -0.037037  -0.304394   7.091136  -0.106964
     6  C   -0.655811   0.103736  -0.285128   0.084873  -0.106964   8.212923
     7  C   -0.342057  -0.427677   0.028615   0.103359  -0.091193  -0.188697
     8  O    0.047178   0.012669  -0.020956  -0.290017  -0.264150  -0.042909
     9  O   -0.080265   0.013316  -0.020463  -0.011068   0.019406   0.019612
    10  O   -0.136066   0.026590  -0.006017  -0.007798   0.003520   0.013486
    11  C    0.007055  -0.008481  -0.017227   0.080346  -0.032218  -0.017519
    12  H   -0.276047   0.350874  -0.469324   0.064451   0.010280   0.054348
    13  H   -0.006295  -0.334206   0.475025  -0.251282   0.018515   0.033812
    14  H    0.084787   0.116920  -0.280016  -0.558791   0.384741  -0.751857
    15  H   -0.474552  -0.070542   0.129845  -0.007001  -0.493793   0.544861
    16  H    0.021247  -0.015266   0.001795   0.002436  -0.003138  -0.024371
    17  H   -0.000195   0.002411  -0.006089  -0.003810   0.022434  -0.002808
    18  H   -0.004114   0.002094   0.000639   0.027092  -0.039578   0.012140
    19  H   -0.004113   0.002093   0.000642   0.027098  -0.039584   0.012140
               7          8          9         10         11         12
     1  C   -0.342057   0.047178  -0.080265  -0.136066   0.007055  -0.276047
     2  C   -0.427677   0.012669   0.013316   0.026590  -0.008481   0.350874
     3  C    0.028615  -0.020956  -0.020463  -0.006017  -0.017227  -0.469324
     4  C    0.103359  -0.290017  -0.011068  -0.007798   0.080346   0.064451
     5  C   -0.091193  -0.264150   0.019406   0.003520  -0.032218   0.010280
     6  C   -0.188697  -0.042909   0.019612   0.013486  -0.017519   0.054348
     7  C    6.352864  -0.009848  -0.146664   0.118105   0.001666   0.122333
     8  O   -0.009848   9.610143   0.001104   0.001108   0.147439   0.001907
     9  O   -0.146664   0.001104   9.297442  -0.088750   0.000331  -0.004177
    10  O    0.118105   0.001108  -0.088750   8.531938   0.000024  -0.054813
    11  C    0.001666   0.147439   0.000331   0.000024   6.007050   0.002503
    12  H    0.122333   0.001907  -0.004177  -0.054813   0.002503   1.276339
    13  H   -0.021533  -0.105254   0.000101  -0.002446  -0.018528  -0.143231
    14  H   -0.027465  -0.154958  -0.001955   0.001238  -0.230031  -0.004054
    15  H    0.096501   0.010059   0.017226  -0.006255   0.010717  -0.002951
    16  H    0.082123  -0.000197  -0.107993   0.150073   0.000003   0.001937
    17  H   -0.000118  -0.065125   0.000041  -0.000001   0.392136   0.000164
    18  H    0.000901  -0.009531  -0.000100  -0.000032   0.348979   0.000129
    19  H    0.000901  -0.009500  -0.000100  -0.000032   0.348985   0.000128
              13         14         15         16         17         18
     1  C   -0.006295   0.084787  -0.474552   0.021247  -0.000195  -0.004114
     2  C   -0.334206   0.116920  -0.070542  -0.015266   0.002411   0.002094
     3  C    0.475025  -0.280016   0.129845   0.001795  -0.006089   0.000639
     4  C   -0.251282  -0.558791  -0.007001   0.002436  -0.003810   0.027092
     5  C    0.018515   0.384741  -0.493793  -0.003138   0.022434  -0.039578
     6  C    0.033812  -0.751857   0.544861  -0.024371  -0.002808   0.012140
     7  C   -0.021533  -0.027465   0.096501   0.082123  -0.000118   0.000901
     8  O   -0.105254  -0.154958   0.010059  -0.000197  -0.065125  -0.009531
     9  O    0.000101  -0.001955   0.017226  -0.107993   0.000041  -0.000100
    10  O   -0.002446   0.001238  -0.006255   0.150073  -0.000001  -0.000032
    11  C   -0.018528  -0.230031   0.010717   0.000003   0.392136   0.348979
    12  H   -0.143231  -0.004054  -0.002951   0.001937   0.000164   0.000129
    13  H    0.976928   0.015888  -0.000414  -0.000112  -0.003243   0.000112
    14  H    0.015888   2.720369  -0.476572  -0.000307   0.002745  -0.044032
    15  H   -0.000414  -0.476572   1.758275   0.001352   0.000968  -0.000405
    16  H   -0.000112  -0.000307   0.001352   0.597941  -0.000001   0.000010
    17  H   -0.003243   0.002745   0.000968  -0.000001   0.384336  -0.017214
    18  H    0.000112  -0.044032  -0.000405   0.000010  -0.017214   0.355859
    19  H    0.000118  -0.044007  -0.000405   0.000010  -0.017220   0.003949
              19
     1  C   -0.004113
     2  C    0.002093
     3  C    0.000642
     4  C    0.027098
     5  C   -0.039584
     6  C    0.012140
     7  C    0.000901
     8  O   -0.009500
     9  O   -0.000100
    10  O   -0.000032
    11  C    0.348985
    12  H    0.000128
    13  H    0.000118
    14  H   -0.044007
    15  H   -0.000405
    16  H    0.000010
    17  H   -0.017220
    18  H    0.003949
    19  H    0.355840
 Mulliken charges:
               1
     1  C    1.821824
     2  C   -0.340525
     3  C   -0.708805
     4  C    1.242075
     5  C    0.011825
     6  C   -1.015868
     7  C    0.347885
     8  O   -0.859161
     9  O   -0.907045
    10  O   -0.543869
    11  C   -1.023228
    12  H    0.069204
    13  H    0.366042
    14  H    0.247356
    15  H   -0.036914
    16  H    0.292456
    17  H    0.310589
    18  H    0.363101
    19  H    0.363060
 Sum of Mulliken charges =   0.00000
 Mulliken charges with hydrogens summed into heavy atoms:
               1
     1  C    1.821824
     2  C   -0.271321
     3  C   -0.342763
     4  C    1.242075
     5  C    0.259181
     6  C   -1.052782
     7  C    0.347885
     8  O   -0.859161
     9  O   -0.907045
    10  O   -0.251413
    11  C    0.013521
 Electronic spatial extent (au):  <R**2>=           2146.3273
 Charge=              0.0000 electrons
 Dipole moment (field-independent basis, Debye):
    X=             -2.4769    Y=              0.5082    Z=              0.0004  Tot=              2.5285
 Quadrupole moment (field-independent basis, Debye-Ang):
   XX=            -53.8409   YY=            -63.4658   ZZ=            -66.1307
   XY=             11.3868   XZ=             -0.0009   YZ=              0.0004
 Traceless Quadrupole moment (field-independent basis, Debye-Ang):
   XX=              7.3049   YY=             -2.3200   ZZ=             -4.9849
   XY=             11.3868   XZ=             -0.0009   YZ=              0.0004
 Octapole moment (field-independent basis, Debye-Ang**2):
  XXX=             -0.7602  YYY=              6.4482  ZZZ=              0.0019  XYY=            -11.7363
  XXY=             13.6315  XXZ=              0.0088  XZZ=              3.7636  YZZ=             -1.0232
  YYZ=             -0.0007  XYZ=              0.0001
 Hexadecapole moment (field-independent basis, Debye-Ang**3):
 XXXX=          -1780.1378 YYYY=           -418.7561 ZZZZ=            -76.2473 XXXY=            161.6757
 XXXZ=             -0.0050 YYYX=             10.3921 YYYZ=              0.0025 ZZZX=              0.0011
 ZZZY=             -0.0006 XXYY=           -480.8830 XXZZ=           -380.8722 YYZZ=            -92.4575
 XXYZ=              0.0056 YYXZ=              0.0015 ZZXY=              0.1844
 N-N= 5.772024586637D+02 E-N=-2.405059768820D+03  KE= 5.326089247137D+02
 ******************************Gaussian NBO Version 3.1******************************
             N A T U R A L   A T O M I C   O R B I T A L   A N D
          N A T U R A L   B O N D   O R B I T A L   A N A L Y S I S
 ******************************Gaussian NBO Version 3.1******************************
       /RESON  / : Allow strongly delocalized NBO set

 Analyzing the SCF density

 Job title: CYH-183-A_eq00000                                               

 Storage needed:   1431180 in NPA,   1906877 in NBO (********** available)
 GSVD:  LWork=       -6054 too small for GESVD, short by      965961 words or      965961 for optimal perf.
 Remove ICRem=  288 ICRemI=   12 L=1 PNAO number  292 atom    7 type 153 NPNAO=  690
   due to symmetric orthogonalization 2, value= 0.00D+00.
 Remove ICRem=  288 ICRemI=   12 L=1 PNAO number  288 atom    7 type 152 NPNAO=  689
   due to symmetric orthogonalization 2, value= 0.00D+00.
 Remove ICRem=  288 ICRemI=   12 L=1 PNAO number  284 atom    7 type 151 NPNAO=  688
   due to symmetric orthogonalization 2, value= 0.00D+00.
 GSVD:  LWork=        -180 too small for GESVD, short by      948366 words or      948366 for optimal perf.
 Remove ICRem=   51 ICRemI=   12 L=0 PNAO number   51 atom    2 type  51 NPNAO=  687
   due to symmetric orthogonalization 2, value= 0.00D+00.
 GSVD:  LWork=        1770 too small for GESVD, short by      942525 words or      942525 for optimal perf.

 Computed number of electrons   79.99988650 does not match expected value of    80.


 NATURAL POPULATIONS:  Natural atomic orbital occupancies 
                                                          
   NAO  Atom  No  lang   Type(AO)    Occupancy      Energy
 ----------------------------------------------------------
     1    C    1  S      Cor( 1S)     1.99903     -10.40426
     2    C    1  S      Val( 2S)     0.92944      -0.17646
     3    C    1  S      Ryd( 3S)     0.00150       1.61516
     4    C    1  S      Ryd( 4S)     0.00027       2.71144
     5    C    1  S      Ryd( 5S)     0.00007       3.21952
     6    C    1  px     Val( 2p)     1.06572      -0.09232
     7    C    1  px     Ryd( 4p)     0.00598       2.01184
     8    C    1  px     Ryd( 3p)     0.00020       0.85075
     9    C    1  px     Ryd( 5p)     0.00008       2.85451
    10    C    1  py     Val( 2p)     1.10336      -0.08805
    11    C    1  py     Ryd( 4p)     0.00709       1.59386
    12    C    1  py     Ryd( 3p)     0.00012       1.04421
    13    C    1  py     Ryd( 5p)     0.00025       2.57016
    14    C    1  pz     Val( 2p)     1.10047      -0.13146
    15    C    1  pz     Ryd( 4p)     0.00177       0.79578
    16    C    1  pz     Ryd( 3p)     0.00070       0.63695
    17    C    1  pz     Ryd( 5p)     0.00016       2.02748
    18    C    1  dxy    Ryd( 3d)     0.00071       2.63091
    19    C    1  dxy    Ryd( 4d)     0.00047       3.85958
    20    C    1  dxy    Ryd( 5d)     0.00008       4.93900
    21    C    1  dxz    Ryd( 3d)     0.00011       1.35678
    22    C    1  dxz    Ryd( 5d)     0.00016       3.01497
    23    C    1  dxz    Ryd( 4d)     0.00008       2.25384
    24    C    1  dyz    Ryd( 3d)     0.00034       1.13053
    25    C    1  dyz    Ryd( 5d)     0.00010       2.98270
    26    C    1  dyz    Ryd( 4d)     0.00004       2.40857
    27    C    1  dx2y2  Ryd( 3d)     0.00183       3.07091
    28    C    1  dx2y2  Ryd( 4d)     0.00030       3.82236
    29    C    1  dx2y2  Ryd( 5d)     0.00004       4.09558
    30    C    1  dz2    Ryd( 3d)     0.00103       1.38933
    31    C    1  dz2    Ryd( 4d)     0.00023       4.05123
    32    C    1  dz2    Ryd( 5d)     0.00006       4.45663
    33    C    1  f(0)   Ryd( 4f)     0.00061       1.35757
    34    C    1  f(0)   Ryd( 5f)     0.00019       3.55606
    35    C    1  f(C1)  Ryd( 4f)     0.00040       1.77243
    36    C    1  f(C1)  Ryd( 5f)     0.00037       3.68592
    37    C    1  f(S1)  Ryd( 4f)     0.00109       1.78193
    38    C    1  f(S1)  Ryd( 5f)     0.00020       3.73986
    39    C    1  f(C2)  Ryd( 4f)     0.00064       1.34503
    40    C    1  f(C2)  Ryd( 5f)     0.00003       3.58388
    41    C    1  f(S2)  Ryd( 4f)     0.00051       1.26978
    42    C    1  f(S2)  Ryd( 5f)     0.00002       3.61337
    43    C    1  f(C3)  Ryd( 4f)     0.00118       2.26070
    44    C    1  f(C3)  Ryd( 5f)     0.00016       4.21619
    45    C    1  f(S3)  Ryd( 4f)     0.00195       2.36357
    46    C    1  f(S3)  Ryd( 5f)     0.00012       4.45781
 
    47    C    2  S      Cor( 1S)     1.99887     -10.40512
    48    C    2  S      Val( 2S)     0.93965      -0.14208
    49    C    2  S      Ryd( 4S)     0.00037       4.60826
    50    C    2  S      Ryd( 3S)     0.00005       1.61389
    51    C    2  px     Val( 2p)     1.09247      -0.06855
    52    C    2  px     Ryd( 4p)     0.00350       1.71489
    53    C    2  px     Ryd( 3p)     0.00007       1.11733
    54    C    2  px     Ryd( 5p)     0.00011       2.41699
    55    C    2  py     Val( 2p)     1.12572      -0.06846
    56    C    2  py     Ryd( 4p)     0.00440       1.56472
    57    C    2  py     Ryd( 3p)     0.00008       1.06584
    58    C    2  py     Ryd( 5p)     0.00010       2.50731
    59    C    2  pz     Val( 2p)     0.94696      -0.12098
    60    C    2  pz     Ryd( 4p)     0.00053       0.95865
    61    C    2  pz     Ryd( 3p)     0.00017       0.63446
    62    C    2  pz     Ryd( 5p)     0.00004       1.77806
    63    C    2  dxy    Ryd( 3d)     0.00161       2.37450
    64    C    2  dxy    Ryd( 5d)     0.00022       3.76088
    65    C    2  dxy    Ryd( 4d)     0.00006       2.88638
    66    C    2  dxz    Ryd( 3d)     0.00071       1.32227
    67    C    2  dxz    Ryd( 5d)     0.00004       3.02575
    68    C    2  dxz    Ryd( 4d)     0.00006       1.85799
    69    C    2  dyz    Ryd( 3d)     0.00050       1.25365
    70    C    2  dyz    Ryd( 5d)     0.00004       2.80156
    71    C    2  dyz    Ryd( 4d)     0.00011       1.84893
    72    C    2  dx2y2  Ryd( 5d)     0.00157       3.77195
    73    C    2  dx2y2  Ryd( 4d)     0.00029       3.39458
    74    C    2  dx2y2  Ryd( 3d)     0.00019       2.46534
    75    C    2  dz2    Ryd( 3d)     0.00488       1.38849
    76    C    2  dz2    Ryd( 5d)     0.00021       3.20815
    77    C    2  dz2    Ryd( 4d)     0.00023       3.11126
    78    C    2  f(0)   Ryd( 5f)     0.00010       3.60396
    79    C    2  f(0)   Ryd( 4f)     0.00002       2.01522
    80    C    2  f(C1)  Ryd( 5f)     0.00025       3.83072
    81    C    2  f(C1)  Ryd( 4f)     0.00003       3.09269
    82    C    2  f(S1)  Ryd( 5f)     0.00022       3.75671
    83    C    2  f(S1)  Ryd( 4f)     0.00004       2.79247
    84    C    2  f(C2)  Ryd( 5f)     0.00001       3.67811
    85    C    2  f(C2)  Ryd( 4f)     0.00003       2.22966
    86    C    2  f(S2)  Ryd( 5f)     0.00001       3.70640
    87    C    2  f(S2)  Ryd( 4f)     0.00001       2.13218
    88    C    2  f(C3)  Ryd( 4f)     0.00014       4.41470
    89    C    2  f(C3)  Ryd( 5f)     0.00010       5.46239
    90    C    2  f(S3)  Ryd( 5f)     0.00005       4.54593
    91    C    2  f(S3)  Ryd( 4f)     0.00010       3.70206
 
    92    C    3  S      Cor( 1S)     1.99920     -10.39392
    93    C    3  S      Val( 2S)     0.96960      -0.21044
    94    C    3  S      Ryd( 3S)     0.00217       1.45504
    95    C    3  S      Ryd( 5S)     0.00034       3.62093
    96    C    3  S      Ryd( 4S)     0.00003       1.91667
    97    C    3  px     Val( 2p)     1.08529      -0.07350
    98    C    3  px     Ryd( 4p)     0.00412       1.60688
    99    C    3  px     Ryd( 5p)     0.00037       2.47119
   100    C    3  px     Ryd( 3p)     0.00007       0.82782
   101    C    3  py     Val( 2p)     1.14420      -0.08267
   102    C    3  py     Ryd( 4p)     0.00407       1.61869
   103    C    3  py     Ryd( 5p)     0.00007       2.26255
   104    C    3  py     Ryd( 3p)     0.00005       0.96599
   105    C    3  pz     Val( 2p)     1.04091      -0.12781
   106    C    3  pz     Ryd( 4p)     0.00092       0.97584
   107    C    3  pz     Ryd( 5p)     0.00009       1.72599
   108    C    3  pz     Ryd( 3p)     0.00006       0.55113
   109    C    3  dxy    Ryd( 3d)     0.00221       2.64601
   110    C    3  dxy    Ryd( 5d)     0.00018       3.68189
   111    C    3  dxy    Ryd( 4d)     0.00008       2.65214
   112    C    3  dxz    Ryd( 3d)     0.00048       1.37742
   113    C    3  dxz    Ryd( 5d)     0.00006       2.95650
   114    C    3  dxz    Ryd( 4d)     0.00001       1.80254
   115    C    3  dyz    Ryd( 3d)     0.00032       1.32278
   116    C    3  dyz    Ryd( 5d)     0.00004       3.02639
   117    C    3  dyz    Ryd( 4d)     0.00009       1.49230
   118    C    3  dx2y2  Ryd( 4d)     0.00108       2.50741
   119    C    3  dx2y2  Ryd( 5d)     0.00031       3.67142
   120    C    3  dx2y2  Ryd( 3d)     0.00009       2.50483
   121    C    3  dz2    Ryd( 3d)     0.00103       1.54707
   122    C    3  dz2    Ryd( 5d)     0.00018       3.78531
   123    C    3  dz2    Ryd( 4d)     0.00007       3.59836
   124    C    3  f(0)   Ryd( 5f)     0.00013       3.49716
   125    C    3  f(0)   Ryd( 4f)     0.00004       2.12537
   126    C    3  f(C1)  Ryd( 5f)     0.00016       3.82923
   127    C    3  f(C1)  Ryd( 4f)     0.00005       3.11014
   128    C    3  f(S1)  Ryd( 5f)     0.00019       3.67707
   129    C    3  f(S1)  Ryd( 4f)     0.00005       2.69952
   130    C    3  f(C2)  Ryd( 5f)     0.00001       3.60158
   131    C    3  f(C2)  Ryd( 4f)     0.00002       2.40907
   132    C    3  f(S2)  Ryd( 5f)     0.00002       3.62550
   133    C    3  f(S2)  Ryd( 4f)     0.00002       2.16700
   134    C    3  f(C3)  Ryd( 4f)     0.00014       4.20315
   135    C    3  f(C3)  Ryd( 5f)     0.00007       5.42334
   136    C    3  f(S3)  Ryd( 5f)     0.00009       4.25165
   137    C    3  f(S3)  Ryd( 4f)     0.00012       3.95502
 
   138    C    4  S      Cor( 1S)     1.99892     -10.48167
   139    C    4  S      Val( 2S)     0.85492      -0.16697
   140    C    4  S      Ryd( 3S)     0.00126       1.90451
   141    C    4  S      Ryd( 4S)     0.00012       2.15987
   142    C    4  S      Ryd( 5S)     0.00002       2.38790
   143    C    4  px     Val( 2p)     0.77230      -0.03338
   144    C    4  px     Ryd( 4p)     0.00556       1.61525
   145    C    4  px     Ryd( 5p)     0.00007       1.92664
   146    C    4  px     Ryd( 3p)     0.00006       1.60500
   147    C    4  py     Val( 2p)     1.06809      -0.08226
   148    C    4  py     Ryd( 5p)     0.00407       1.77949
   149    C    4  py     Ryd( 4p)     0.00009       1.48383
   150    C    4  py     Ryd( 3p)     0.00003       1.27346
   151    C    4  pz     Val( 2p)     0.93390      -0.13148
   152    C    4  pz     Ryd( 3p)     0.00069       0.91822
   153    C    4  pz     Ryd( 5p)     0.00021       1.09659
   154    C    4  pz     Ryd( 4p)     0.00003       0.99996
   155    C    4  dxy    Ryd( 3d)     0.00195       3.05535
   156    C    4  dxy    Ryd( 4d)     0.00019       3.31943
   157    C    4  dxy    Ryd( 5d)     0.00009       4.56546
   158    C    4  dxz    Ryd( 3d)     0.00241       1.55232
   159    C    4  dxz    Ryd( 4d)     0.00003       2.33105
   160    C    4  dxz    Ryd( 5d)     0.00007       2.64824
   161    C    4  dyz    Ryd( 3d)     0.00106       1.61103
   162    C    4  dyz    Ryd( 4d)     0.00012       2.21190
   163    C    4  dyz    Ryd( 5d)     0.00002       2.55258
   164    C    4  dx2y2  Ryd( 3d)     0.00085       2.76092
   165    C    4  dx2y2  Ryd( 4d)     0.00021       3.30748
   166    C    4  dx2y2  Ryd( 5d)     0.00007       3.48141
   167    C    4  dz2    Ryd( 3d)     0.00063       2.25262
   168    C    4  dz2    Ryd( 4d)     0.00047       3.33006
   169    C    4  dz2    Ryd( 5d)     0.00012       4.04098
   170    C    4  f(0)   Ryd( 4f)     0.00010       1.36693
   171    C    4  f(0)   Ryd( 5f)     0.00017       3.64167
   172    C    4  f(C1)  Ryd( 4f)     0.00052       1.57575
   173    C    4  f(C1)  Ryd( 5f)     0.00017       3.73819
   174    C    4  f(S1)  Ryd( 4f)     0.00032       1.57601
   175    C    4  f(S1)  Ryd( 5f)     0.00020       3.74237
   176    C    4  f(C2)  Ryd( 4f)     0.00055       1.24592
   177    C    4  f(C2)  Ryd( 5f)     0.00005       3.70382
   178    C    4  f(S2)  Ryd( 4f)     0.00036       1.24212
   179    C    4  f(S2)  Ryd( 5f)     0.00002       3.68470
   180    C    4  f(C3)  Ryd( 4f)     0.00063       1.90604
   181    C    4  f(C3)  Ryd( 5f)     0.00008       4.46549
   182    C    4  f(S3)  Ryd( 4f)     0.00232       2.03123
   183    C    4  f(S3)  Ryd( 5f)     0.00008       4.62365
 
   184    C    5  S      Cor( 1S)     1.99914     -10.39913
   185    C    5  S      Val( 2S)     0.96585      -0.21425
   186    C    5  S      Ryd( 3S)     0.00120       1.63997
   187    C    5  S      Ryd( 5S)     0.00012       3.03303
   188    C    5  S      Ryd( 4S)     0.00003       1.93477
   189    C    5  px     Val( 2p)     1.11218      -0.08781
   190    C    5  px     Ryd( 3p)     0.00262       1.75424
   191    C    5  px     Ryd( 5p)     0.00005       1.95209
   192    C    5  px     Ryd( 4p)     0.00008       1.78647
   193    C    5  py     Val( 2p)     1.13201      -0.08502
   194    C    5  py     Ryd( 4p)     0.00312       1.70441
   195    C    5  py     Ryd( 3p)     0.00006       1.59398
   196    C    5  py     Ryd( 5p)     0.00004       1.71796
   197    C    5  pz     Val( 2p)     1.07947      -0.13841
   198    C    5  pz     Ryd( 3p)     0.00090       0.98823
   199    C    5  pz     Ryd( 4p)     0.00007       1.06644
   200    C    5  pz     Ryd( 5p)     0.00005       1.29449
   201    C    5  dxy    Ryd( 3d)     0.00202       2.27218
   202    C    5  dxy    Ryd( 5d)     0.00011       3.68573
   203    C    5  dxy    Ryd( 4d)     0.00007       3.19939
   204    C    5  dxz    Ryd( 3d)     0.00063       1.36497
   205    C    5  dxz    Ryd( 5d)     0.00010       2.92429
   206    C    5  dxz    Ryd( 4d)     0.00002       2.01831
   207    C    5  dyz    Ryd( 3d)     0.00051       1.29342
   208    C    5  dyz    Ryd( 5d)     0.00006       3.00633
   209    C    5  dyz    Ryd( 4d)     0.00003       1.72779
   210    C    5  dx2y2  Ryd( 4d)     0.00137       3.26405
   211    C    5  dx2y2  Ryd( 5d)     0.00036       3.75807
   212    C    5  dx2y2  Ryd( 3d)     0.00006       2.56720
   213    C    5  dz2    Ryd( 3d)     0.00099       1.49966
   214    C    5  dz2    Ryd( 5d)     0.00013       3.94882
   215    C    5  dz2    Ryd( 4d)     0.00005       3.82788
   216    C    5  f(0)   Ryd( 5f)     0.00014       3.56260
   217    C    5  f(0)   Ryd( 4f)     0.00004       2.25811
   218    C    5  f(C1)  Ryd( 5f)     0.00022       3.84240
   219    C    5  f(C1)  Ryd( 4f)     0.00002       3.05349
   220    C    5  f(S1)  Ryd( 5f)     0.00024       3.71078
   221    C    5  f(S1)  Ryd( 4f)     0.00002       3.08301
   222    C    5  f(C2)  Ryd( 5f)     0.00001       3.63622
   223    C    5  f(C2)  Ryd( 4f)     0.00001       2.47002
   224    C    5  f(S2)  Ryd( 5f)     0.00002       3.68801
   225    C    5  f(S2)  Ryd( 4f)     0.00002       2.33046
   226    C    5  f(C3)  Ryd( 4f)     0.00016       4.23621
   227    C    5  f(C3)  Ryd( 5f)     0.00004       5.85693
   228    C    5  f(S3)  Ryd( 5f)     0.00010       4.40498
   229    C    5  f(S3)  Ryd( 4f)     0.00006       3.87219
 
   230    C    6  S      Cor( 1S)     1.99922     -10.40152
   231    C    6  S      Val( 2S)     0.96076      -0.21065
   232    C    6  S      Ryd( 3S)     0.00133       1.86851
   233    C    6  S      Ryd( 5S)     0.00014       2.89163
   234    C    6  S      Ryd( 4S)     0.00003       1.93611
   235    C    6  px     Val( 2p)     1.05938      -0.06228
   236    C    6  px     Ryd( 4p)     0.00335       1.82789
   237    C    6  px     Ryd( 3p)     0.00009       0.94198
   238    C    6  px     Ryd( 5p)     0.00007       2.58714
   239    C    6  py     Val( 2p)     1.15584      -0.07342
   240    C    6  py     Ryd( 4p)     0.00494       1.63553
   241    C    6  py     Ryd( 3p)     0.00009       1.14789
   242    C    6  py     Ryd( 5p)     0.00006       2.41044
   243    C    6  pz     Val( 2p)     0.93056      -0.11830
   244    C    6  pz     Ryd( 4p)     0.00053       0.96364
   245    C    6  pz     Ryd( 3p)     0.00020       0.67530
   246    C    6  pz     Ryd( 5p)     0.00006       1.68119
   247    C    6  dxy    Ryd( 4d)     0.00198       2.90529
   248    C    6  dxy    Ryd( 5d)     0.00016       4.06476
   249    C    6  dxy    Ryd( 3d)     0.00008       2.62593
   250    C    6  dxz    Ryd( 3d)     0.00057       1.23104
   251    C    6  dxz    Ryd( 5d)     0.00010       3.18160
   252    C    6  dxz    Ryd( 4d)     0.00009       1.80065
   253    C    6  dyz    Ryd( 3d)     0.00044       1.14493
   254    C    6  dyz    Ryd( 5d)     0.00011       3.21393
   255    C    6  dyz    Ryd( 4d)     0.00005       1.49466
   256    C    6  dx2y2  Ryd( 4d)     0.00196       3.08871
   257    C    6  dx2y2  Ryd( 5d)     0.00032       4.04611
   258    C    6  dx2y2  Ryd( 3d)     0.00006       2.54359
   259    C    6  dz2    Ryd( 3d)     0.00107       1.62146
   260    C    6  dz2    Ryd( 4d)     0.00016       3.91947
   261    C    6  dz2    Ryd( 5d)     0.00007       4.33586
   262    C    6  f(0)   Ryd( 4f)     0.00012       1.42913
   263    C    6  f(0)   Ryd( 5f)     0.00008       3.40936
   264    C    6  f(C1)  Ryd( 4f)     0.00041       1.95675
   265    C    6  f(C1)  Ryd( 5f)     0.00022       3.64812
   266    C    6  f(S1)  Ryd( 4f)     0.00047       1.72479
   267    C    6  f(S1)  Ryd( 5f)     0.00013       3.56962
   268    C    6  f(C2)  Ryd( 4f)     0.00023       1.49287
   269    C    6  f(C2)  Ryd( 5f)     0.00003       3.43377
   270    C    6  f(S2)  Ryd( 4f)     0.00015       1.43953
   271    C    6  f(S2)  Ryd( 5f)     0.00002       3.47802
   272    C    6  f(C3)  Ryd( 4f)     0.00038       2.62281
   273    C    6  f(C3)  Ryd( 5f)     0.00016       4.04541
   274    C    6  f(S3)  Ryd( 4f)     0.00110       1.89944
   275    C    6  f(S3)  Ryd( 5f)     0.00018       4.18928
 
   276    C    7  S      Cor( 1S)     1.99937     -10.55348
   277    C    7  S      Val( 2S)     0.79041      -0.13799
   278    C    7  S      Ryd( 3S)     0.00552       1.75423
   279    C    7  S      Ryd( 5S)     0.00033       1.98383
   280    C    7  S      Ryd( 4S)     0.00005       1.94702
   281    C    7  px     Val( 2p)     0.90210      -0.05292
   282    C    7  px     Ryd( 3p)     0.00543       1.50855
   283    C    7  px     Ryd( 4p)     0.00003       1.91412
   284    C    7  py     Val( 2p)     0.71413       0.00267
   285    C    7  py     Ryd( 3p)     0.01342       1.50478
   286    C    7  py     Ryd( 4p)     0.00004       2.33757
   287    C    7  pz     Val( 2p)     0.73354      -0.11952
   288    C    7  pz     Ryd( 3p)     0.00040       1.06131
   289    C    7  pz     Ryd( 4p)     0.00006       1.31522
   290    C    7  dxy    Ryd( 4d)     0.00089       3.01417
   291    C    7  dxy    Ryd( 3d)     0.00025       2.42355
   292    C    7  dxy    Ryd( 5d)     0.00011       3.99202
   293    C    7  dxz    Ryd( 4d)     0.00132       2.33038
   294    C    7  dxz    Ryd( 3d)     0.00013       1.54721
   295    C    7  dxz    Ryd( 5d)     0.00018       2.70104
   296    C    7  dyz    Ryd( 4d)     0.00164       2.45524
   297    C    7  dyz    Ryd( 3d)     0.00011       1.72225
   298    C    7  dyz    Ryd( 5d)     0.00005       2.87350
   299    C    7  dx2y2  Ryd( 4d)     0.00168       3.04395
   300    C    7  dx2y2  Ryd( 3d)     0.00033       2.18860
   301    C    7  dx2y2  Ryd( 5d)     0.00007       3.91988
   302    C    7  dz2    Ryd( 4d)     0.00030       3.22405
   303    C    7  dz2    Ryd( 3d)     0.00056       2.26932
   304    C    7  dz2    Ryd( 5d)     0.00009       3.31701
   305    C    7  f(0)   Ryd( 5f)     0.00009       3.69633
   306    C    7  f(0)   Ryd( 4f)     0.00007       2.14760
   307    C    7  f(C1)  Ryd( 5f)     0.00007       3.75682
   308    C    7  f(C1)  Ryd( 4f)     0.00004       2.91749
   309    C    7  f(S1)  Ryd( 5f)     0.00003       3.83225
   310    C    7  f(S1)  Ryd( 4f)     0.00007       3.20955
   311    C    7  f(C2)  Ryd( 5f)     0.00001       3.65116
   312    C    7  f(C2)  Ryd( 4f)     0.00004       2.33496
   313    C    7  f(S2)  Ryd( 5f)     0.00001       3.71303
   314    C    7  f(S2)  Ryd( 4f)     0.00000       2.67860
   315    C    7  f(C3)  Ryd( 4f)     0.00008       4.59869
   316    C    7  f(C3)  Ryd( 5f)     0.00005       7.92510
   317    C    7  f(S3)  Ryd( 5f)     0.00008       4.74652
   318    C    7  f(S3)  Ryd( 4f)     0.00003       3.88403
 
   319    O    8  S      Cor( 1S)     1.99974     -19.46563
   320    O    8  S      Val( 2S)     1.58205      -0.96361
   321    O    8  S      Ryd( 4S)     0.00223       2.32680
   322    O    8  S      Ryd( 3S)     0.00025       1.55490
   323    O    8  S      Ryd( 5S)     0.00001      10.57710
   324    O    8  px     Val( 2p)     1.38524      -0.34926
   325    O    8  px     Ryd( 4p)     0.00185       1.80353
   326    O    8  px     Ryd( 3p)     0.00017       1.34221
   327    O    8  px     Ryd( 5p)     0.00002       4.99488
   328    O    8  py     Val( 2p)     1.68048      -0.39418
   329    O    8  py     Ryd( 3p)     0.00275       1.27344
   330    O    8  py     Ryd( 4p)     0.00014       1.31530
   331    O    8  py     Ryd( 5p)     0.00009       4.32851
   332    O    8  pz     Val( 2p)     1.84020      -0.40063
   333    O    8  pz     Ryd( 3p)     0.00379       0.96483
   334    O    8  pz     Ryd( 4p)     0.00006       1.20745
   335    O    8  pz     Ryd( 5p)     0.00001       3.68441
   336    O    8  dxy    Ryd( 3d)     0.00374       2.22244
   337    O    8  dxy    Ryd( 4d)     0.00013       3.19360
   338    O    8  dxy    Ryd( 5d)     0.00006       6.43896
   339    O    8  dxz    Ryd( 3d)     0.00052       1.44715
   340    O    8  dxz    Ryd( 4d)     0.00023       2.44902
   341    O    8  dxz    Ryd( 5d)     0.00007       6.17929
   342    O    8  dyz    Ryd( 3d)     0.00306       1.35165
   343    O    8  dyz    Ryd( 4d)     0.00007       2.35734
   344    O    8  dyz    Ryd( 5d)     0.00002       5.97581
   345    O    8  dx2y2  Ryd( 3d)     0.00362       2.04809
   346    O    8  dx2y2  Ryd( 4d)     0.00022       3.19545
   347    O    8  dx2y2  Ryd( 5d)     0.00005       6.37002
   348    O    8  dz2    Ryd( 3d)     0.00280       1.69107
   349    O    8  dz2    Ryd( 4d)     0.00012       2.66308
   350    O    8  dz2    Ryd( 5d)     0.00002       6.30226
   351    O    8  f(0)   Ryd( 4f)     0.00057       2.77776
   352    O    8  f(0)   Ryd( 5f)     0.00002       6.13724
   353    O    8  f(C1)  Ryd( 4f)     0.00015       4.44896
   354    O    8  f(C1)  Ryd( 5f)     0.00004       6.53718
   355    O    8  f(S1)  Ryd( 4f)     0.00015       3.33992
   356    O    8  f(S1)  Ryd( 5f)     0.00002       6.25701
   357    O    8  f(C2)  Ryd( 4f)     0.00007       2.84809
   358    O    8  f(C2)  Ryd( 5f)     0.00001       6.29495
   359    O    8  f(S2)  Ryd( 4f)     0.00007       2.89593
   360    O    8  f(S2)  Ryd( 5f)     0.00002       6.37452
   361    O    8  f(C3)  Ryd( 4f)     0.00009       4.68392
   362    O    8  f(C3)  Ryd( 5f)     0.00006       6.72165
   363    O    8  f(S3)  Ryd( 4f)     0.00004       3.91766
   364    O    8  f(S3)  Ryd( 5f)     0.00008       6.64477
 
   365    O    9  S      Cor( 1S)     1.99978     -19.32478
   366    O    9  S      Val( 2S)     1.70277      -1.00091
   367    O    9  S      Ryd( 4S)     0.00076       3.46088
   368    O    9  S      Ryd( 3S)     0.00019       1.17814
   369    O    9  S      Ryd( 5S)     0.00002       8.32072
   370    O    9  px     Val( 2p)     1.79254      -0.33863
   371    O    9  px     Ryd( 4p)     0.00191       1.28236
   372    O    9  px     Ryd( 3p)     0.00031       0.56173
   373    O    9  px     Ryd( 5p)     0.00004       4.83567
   374    O    9  py     Val( 2p)     1.61912      -0.34135
   375    O    9  py     Ryd( 4p)     0.00182       1.44555
   376    O    9  py     Ryd( 3p)     0.00034       0.54197
   377    O    9  py     Ryd( 5p)     0.00008       5.58593
   378    O    9  pz     Val( 2p)     1.47308      -0.28997
   379    O    9  pz     Ryd( 4p)     0.00077       1.01101
   380    O    9  pz     Ryd( 3p)     0.00037       0.38873
   381    O    9  pz     Ryd( 5p)     0.00001       4.29502
   382    O    9  dxy    Ryd( 3d)     0.00824       1.95862
   383    O    9  dxy    Ryd( 4d)     0.00003       3.87890
   384    O    9  dxy    Ryd( 5d)     0.00002       5.68602
   385    O    9  dxz    Ryd( 3d)     0.00145       1.42305
   386    O    9  dxz    Ryd( 4d)     0.00001       2.61218
   387    O    9  dxz    Ryd( 5d)     0.00001       5.51280
   388    O    9  dyz    Ryd( 3d)     0.00509       1.52713
   389    O    9  dyz    Ryd( 4d)     0.00004       2.75022
   390    O    9  dyz    Ryd( 5d)     0.00002       5.39073
   391    O    9  dx2y2  Ryd( 3d)     0.00666       1.83261
   392    O    9  dx2y2  Ryd( 4d)     0.00010       3.41577
   393    O    9  dx2y2  Ryd( 5d)     0.00003       5.58300
   394    O    9  dz2    Ryd( 3d)     0.00316       1.61693
   395    O    9  dz2    Ryd( 4d)     0.00006       3.34087
   396    O    9  dz2    Ryd( 5d)     0.00002       5.65456
   397    O    9  f(0)   Ryd( 4f)     0.00018       3.13131
   398    O    9  f(0)   Ryd( 5f)     0.00001       5.47273
   399    O    9  f(C1)  Ryd( 4f)     0.00006       3.21719
   400    O    9  f(C1)  Ryd( 5f)     0.00001       5.54046
   401    O    9  f(S1)  Ryd( 4f)     0.00011       3.61928
   402    O    9  f(S1)  Ryd( 5f)     0.00001       5.76342
   403    O    9  f(C2)  Ryd( 4f)     0.00015       3.11327
   404    O    9  f(C2)  Ryd( 5f)     0.00002       5.67292
   405    O    9  f(S2)  Ryd( 4f)     0.00027       3.15773
   406    O    9  f(S2)  Ryd( 5f)     0.00001       5.61450
   407    O    9  f(C3)  Ryd( 4f)     0.00035       4.10800
   408    O    9  f(C3)  Ryd( 5f)     0.00002       6.03249
   409    O    9  f(S3)  Ryd( 4f)     0.00042       3.61947
   410    O    9  f(S3)  Ryd( 5f)     0.00001       5.92062
 
   411    O   10  S      Cor( 1S)     1.99978     -19.45470
   412    O   10  S      Val( 2S)     1.67607      -1.03652
   413    O   10  S      Ryd( 4S)     0.00076       1.72284
   414    O   10  S      Ryd( 3S)     0.00004       1.67293
   415    O   10  S      Ryd( 5S)     0.00002      10.11290
   416    O   10  px     Val( 2p)     1.48652      -0.36276
   417    O   10  px     Ryd( 4p)     0.00090       1.21183
   418    O   10  px     Ryd( 3p)     0.00025       0.71168
   419    O   10  px     Ryd( 5p)     0.00004       5.27480
   420    O   10  py     Val( 2p)     1.68199      -0.40665
   421    O   10  py     Ryd( 4p)     0.00129       1.06140
   422    O   10  py     Ryd( 3p)     0.00020       0.59075
   423    O   10  py     Ryd( 5p)     0.00010       5.08588
   424    O   10  pz     Val( 2p)     1.84179      -0.41315
   425    O   10  pz     Ryd( 4p)     0.00134       0.88344
   426    O   10  pz     Ryd( 3p)     0.00037       0.41138
   427    O   10  pz     Ryd( 5p)     0.00000       4.19264
   428    O   10  dxy    Ryd( 3d)     0.00570       1.90113
   429    O   10  dxy    Ryd( 4d)     0.00006       2.57496
   430    O   10  dxy    Ryd( 5d)     0.00003       6.79284
   431    O   10  dxz    Ryd( 3d)     0.00054       1.20071
   432    O   10  dxz    Ryd( 4d)     0.00009       1.86591
   433    O   10  dxz    Ryd( 5d)     0.00001       6.50533
   434    O   10  dyz    Ryd( 3d)     0.00418       1.31273
   435    O   10  dyz    Ryd( 4d)     0.00004       1.66451
   436    O   10  dyz    Ryd( 5d)     0.00004       6.50973
   437    O   10  dx2y2  Ryd( 3d)     0.00461       1.82369
   438    O   10  dx2y2  Ryd( 4d)     0.00009       2.06909
   439    O   10  dx2y2  Ryd( 5d)     0.00007       6.92788
   440    O   10  dz2    Ryd( 3d)     0.00328       1.50592
   441    O   10  dz2    Ryd( 4d)     0.00010       2.33217
   442    O   10  dz2    Ryd( 5d)     0.00001       6.74373
   443    O   10  f(0)   Ryd( 4f)     0.00056       2.78403
   444    O   10  f(0)   Ryd( 5f)     0.00001       5.94066
   445    O   10  f(C1)  Ryd( 4f)     0.00023       3.44022
   446    O   10  f(C1)  Ryd( 5f)     0.00001       6.22883
   447    O   10  f(S1)  Ryd( 4f)     0.00018       3.28157
   448    O   10  f(S1)  Ryd( 5f)     0.00001       6.09946
   449    O   10  f(C2)  Ryd( 4f)     0.00005       2.84502
   450    O   10  f(C2)  Ryd( 5f)     0.00001       6.09832
   451    O   10  f(S2)  Ryd( 4f)     0.00009       2.84043
   452    O   10  f(S2)  Ryd( 5f)     0.00001       5.95586
   453    O   10  f(C3)  Ryd( 4f)     0.00012       4.36284
   454    O   10  f(C3)  Ryd( 5f)     0.00006       6.55104
   455    O   10  f(S3)  Ryd( 4f)     0.00007       3.79303
   456    O   10  f(S3)  Ryd( 5f)     0.00001       6.43098
 
   457    C   11  S      Cor( 1S)     1.99937     -10.47477
   458    C   11  S      Val( 2S)     1.08045      -0.31994
   459    C   11  S      Ryd( 3S)     0.00157       1.05900
   460    C   11  S      Ryd( 4S)     0.00021       3.34014
   461    C   11  S      Ryd( 5S)     0.00007       3.68394
   462    C   11  px     Val( 2p)     1.00165      -0.11865
   463    C   11  px     Ryd( 4p)     0.00175       1.20314
   464    C   11  px     Ryd( 5p)     0.00022       2.10219
   465    C   11  px     Ryd( 3p)     0.00003       0.92076
   466    C   11  py     Val( 2p)     0.93953      -0.10064
   467    C   11  py     Ryd( 4p)     0.00323       0.98643
   468    C   11  py     Ryd( 5p)     0.00013       2.16200
   469    C   11  py     Ryd( 3p)     0.00008       0.65397
   470    C   11  pz     Val( 2p)     1.18445      -0.13959
   471    C   11  pz     Ryd( 4p)     0.00032       1.06390
   472    C   11  pz     Ryd( 5p)     0.00021       1.92047
   473    C   11  pz     Ryd( 3p)     0.00002       0.58257
   474    C   11  dxy    Ryd( 5d)     0.00057       3.94736
   475    C   11  dxy    Ryd( 3d)     0.00015       1.25163
   476    C   11  dxy    Ryd( 4d)     0.00003       3.34491
   477    C   11  dxz    Ryd( 5d)     0.00026       3.13300
   478    C   11  dxz    Ryd( 3d)     0.00009       1.23473
   479    C   11  dxz    Ryd( 4d)     0.00006       3.10759
   480    C   11  dyz    Ryd( 5d)     0.00164       3.43542
   481    C   11  dyz    Ryd( 3d)     0.00023       1.28997
   482    C   11  dyz    Ryd( 4d)     0.00001       3.15186
   483    C   11  dx2y2  Ryd( 4d)     0.00070       3.26306
   484    C   11  dx2y2  Ryd( 3d)     0.00002       1.29897
   485    C   11  dx2y2  Ryd( 5d)     0.00003       3.57728
   486    C   11  dz2    Ryd( 5d)     0.00056       3.60232
   487    C   11  dz2    Ryd( 3d)     0.00016       1.27895
   488    C   11  dz2    Ryd( 4d)     0.00001       3.31973
   489    C   11  f(0)   Ryd( 4f)     0.00003       2.12187
   490    C   11  f(0)   Ryd( 5f)     0.00001       3.62697
   491    C   11  f(C1)  Ryd( 4f)     0.00011       2.75086
   492    C   11  f(C1)  Ryd( 5f)     0.00001       3.74421
   493    C   11  f(S1)  Ryd( 4f)     0.00016       2.71275
   494    C   11  f(S1)  Ryd( 5f)     0.00014       3.95134
   495    C   11  f(C2)  Ryd( 4f)     0.00010       2.52134
   496    C   11  f(C2)  Ryd( 5f)     0.00001       3.66154
   497    C   11  f(S2)  Ryd( 4f)     0.00011       2.15698
   498    C   11  f(S2)  Ryd( 5f)     0.00002       3.61241
   499    C   11  f(C3)  Ryd( 4f)     0.00003       2.53671
   500    C   11  f(C3)  Ryd( 5f)     0.00005       3.77633
   501    C   11  f(S3)  Ryd( 4f)     0.00017       2.53676
   502    C   11  f(S3)  Ryd( 5f)     0.00006       3.75692
 
   503    H   12  S      Val( 1S)     0.77063       0.07379
   504    H   12  S      Ryd( 3S)     0.00056       1.94322
   505    H   12  S      Ryd( 2S)     0.00017       0.44932
   506    H   12  S      Ryd( 4S)     0.00008       2.04206
   507    H   12  px     Ryd( 2p)     0.00060       1.15768
   508    H   12  px     Ryd( 4p)     0.00014       4.01916
   509    H   12  px     Ryd( 3p)     0.00004       3.16102
   510    H   12  py     Ryd( 2p)     0.00079       0.98741
   511    H   12  py     Ryd( 4p)     0.00016       4.09351
   512    H   12  py     Ryd( 3p)     0.00006       3.87039
   513    H   12  pz     Ryd( 2p)     0.00041       0.72757
   514    H   12  pz     Ryd( 4p)     0.00005       3.84190
   515    H   12  pz     Ryd( 3p)     0.00009       1.72218
   516    H   12  dxy    Ryd( 3d)     0.00011       2.77215
   517    H   12  dxy    Ryd( 4d)     0.00007       4.10000
   518    H   12  dxz    Ryd( 3d)     0.00003       1.57346
   519    H   12  dxz    Ryd( 4d)     0.00001       3.76777
   520    H   12  dyz    Ryd( 3d)     0.00002       1.69362
   521    H   12  dyz    Ryd( 4d)     0.00001       3.81310
   522    H   12  dx2y2  Ryd( 3d)     0.00003       2.49014
   523    H   12  dx2y2  Ryd( 4d)     0.00004       4.23323
   524    H   12  dz2    Ryd( 3d)     0.00004       2.15376
   525    H   12  dz2    Ryd( 4d)     0.00003       3.87510
 
   526    H   13  S      Val( 1S)     0.77417       0.05373
   527    H   13  S      Ryd( 4S)     0.00045       2.03269
   528    H   13  S      Ryd( 2S)     0.00011       0.48251
   529    H   13  S      Ryd( 3S)     0.00003       1.87869
   530    H   13  px     Ryd( 2p)     0.00161       0.82194
   531    H   13  px     Ryd( 4p)     0.00009       4.14079
   532    H   13  px     Ryd( 3p)     0.00010       2.63542
   533    H   13  py     Ryd( 2p)     0.00091       0.80364
   534    H   13  py     Ryd( 3p)     0.00019       4.25138
   535    H   13  py     Ryd( 4p)     0.00005       4.30644
   536    H   13  pz     Ryd( 2p)     0.00053       0.56615
   537    H   13  pz     Ryd( 4p)     0.00002       3.97644
   538    H   13  pz     Ryd( 3p)     0.00008       1.68999
   539    H   13  dxy    Ryd( 3d)     0.00009       2.01019
   540    H   13  dxy    Ryd( 4d)     0.00003       4.48077
   541    H   13  dxz    Ryd( 3d)     0.00002       1.31485
   542    H   13  dxz    Ryd( 4d)     0.00000       3.82385
   543    H   13  dyz    Ryd( 3d)     0.00002       1.51429
   544    H   13  dyz    Ryd( 4d)     0.00002       4.10627
   545    H   13  dx2y2  Ryd( 3d)     0.00006       2.09293
   546    H   13  dx2y2  Ryd( 4d)     0.00004       4.51461
   547    H   13  dz2    Ryd( 3d)     0.00003       1.79827
   548    H   13  dz2    Ryd( 4d)     0.00003       4.02386
 
   549    H   14  S      Val( 1S)     0.77863       0.04436
   550    H   14  S      Ryd( 3S)     0.00041       1.88224
   551    H   14  S      Ryd( 2S)     0.00015       0.81094
   552    H   14  S      Ryd( 4S)     0.00002       2.07192
   553    H   14  px     Ryd( 2p)     0.00058       1.06220
   554    H   14  px     Ryd( 4p)     0.00012       4.35875
   555    H   14  px     Ryd( 3p)     0.00006       2.91021
   556    H   14  py     Ryd( 2p)     0.00049       0.96768
   557    H   14  py     Ryd( 4p)     0.00016       4.41520
   558    H   14  py     Ryd( 3p)     0.00005       4.09380
   559    H   14  pz     Ryd( 2p)     0.00071       0.61812
   560    H   14  pz     Ryd( 4p)     0.00002       4.07452
   561    H   14  pz     Ryd( 3p)     0.00006       1.67635
   562    H   14  dxy    Ryd( 3d)     0.00011       2.39758
   563    H   14  dxy    Ryd( 4d)     0.00004       4.43241
   564    H   14  dxz    Ryd( 3d)     0.00002       1.62385
   565    H   14  dxz    Ryd( 4d)     0.00001       3.78874
   566    H   14  dyz    Ryd( 3d)     0.00003       1.56513
   567    H   14  dyz    Ryd( 4d)     0.00002       3.94824
   568    H   14  dx2y2  Ryd( 3d)     0.00003       2.02400
   569    H   14  dx2y2  Ryd( 4d)     0.00003       4.51081
   570    H   14  dz2    Ryd( 3d)     0.00003       1.97641
   571    H   14  dz2    Ryd( 4d)     0.00003       3.93617
 
[...]
 ,0.02143721,-0.29561918,0.08721912,-0.02343866,0.70833521,0.04438605,-
 0.02062622,0.00387106,-0.02105209,0.05038734,-0.01330341,0.01389847,-0
 .13082206,0.01589966,-0.00818080,0.66099516,-0.01187068,0.00387048,-0.
 00728464,0.00558193,-0.01335004,0.00413112,-0.00388581,0.01595781,-0.0
 7550507,0.00261083,-0.13053991,0.20636981,-0.04217600,-0.01514254,0.00
 399828,-0.00314240,-0.01527263,0.00407248,-0.00069108,0.03311358,-0.00
 883747,-0.17614109,0.10712920,-0.02865534,0.76212873,-0.07035061,0.039
 41648,-0.00848213,-0.00633359,-0.06607440,0.01698563,0.07540916,0.0187
 0998,-0.00286935,0.03428936,-0.25768954,0.05027196,0.00175289,0.637032
 53,0.01872160,-0.00843900,0.01008305,0.00168847,0.01697810,-0.00689191
 ,-0.02011725,-0.00290279,0.00848455,-0.00923006,0.05032966,-0.08272165
 ,0.00003494,-0.13633568,0.16218375,-0.32655976,0.00752496,-0.00221497,
 -0.01161561,0.08766686,-0.02339445,-0.06461311,-0.02518577,0.00666709,
 0.07814590,-0.05270121,0.01411655,-0.22045854,-0.06990991,0.01851926,0
 .69319045,0.06999840,-0.12553339,0.01571946,0.03514705,0.01467252,-0.0
 0204919,-0.01898745,-0.00936271,0.00178143,0.00610201,-0.05655554,0.01
 529551,-0.14152061,-0.24830300,0.04994435,-0.01356376,0.71147218,-0.01
 887596,0.01567075,-0.07098779,-0.00938844,-0.00200702,0.00741247,0.005
 01457,0.00177647,-0.00309650,-0.00156590,0.01524892,-0.00329013,0.0376
 1622,0.05000045,-0.07391559,0.00405128,-0.15051782,0.18726993,-0.14612
 739,-0.05922022,0.01573856,0.01783796,-0.00585357,0.00157763,0.0057280
 8,0.00829018,-0.00221174,-0.00734891,-0.00425727,0.00113010,-0.0059576
 7,0.00581325,-0.00156105,-0.02744706,-0.02838665,0.00754857,0.63694534
 ,-0.04621590,-0.15874379,0.02056741,-0.01573103,-0.02915934,0.00725138
 ,0.00878171,-0.00129059,0.00233387,-0.00262755,-0.01071767,0.00272432,
 0.00632242,0.01042562,-0.00073911,-0.02281832,0.00588924,-0.00155048,-
 0.08844078,0.93777454,0.01227930,0.02056733,-0.08694016,0.00420964,0.0
 0726079,-0.00385451,-0.00234345,0.00233214,0.00680865,0.00069587,0.002
 72350,-0.00122104,-0.00169744,-0.00074018,0.00782917,0.00606534,-0.001
 55656,0.00055869,0.02389925,-0.19175313,0.27052208,-0.00238895,-0.0112
 1879,0.00299068,-0.00151020,0.01363248,-0.00364089,-0.05206636,-0.0528
 8055,0.01405589,-0.16866213,-0.10443327,0.02775626,0.01150805,-0.00539
 705,0.00143938,-0.00341759,0.00347802,-0.00093583,0.00698436,0.0084906
 4,-0.00225864,0.54558792,-0.00843515,-0.00821671,0.00203816,0.00584863
 ,0.00396172,0.00015881,-0.02181590,0.00186123,0.00153012,-0.06835548,-
 0.24032563,0.05114881,-0.02917888,-0.04758765,0.01565998,0.01100860,0.
 00154975,0.00135133,0.00737205,0.00858004,-0.00247091,0.09724816,0.367
 66597,0.00224783,0.00203640,-0.00109144,-0.00156515,0.00016455,0.00449
 688,0.00577180,0.00150535,0.00726727,0.01813146,0.05111811,-0.06196931
 ,0.00778134,0.01567755,0.00703935,-0.00294343,0.00134564,0.00622343,-0
 .00196014,-0.00246975,-0.00004816,-0.02554073,-0.07866686,0.09339252,0
 .01892519,-0.01495370,0.00398758,-0.00403475,-0.00050753,0.00012952,0.
 00023111,-0.00209752,0.00056073,0.00122079,-0.00041857,0.00011255,0.00
 231697,0.00035982,-0.00009333,-0.00492163,-0.00135999,0.00035900,-0.16
 880789,0.16798682,-0.04488947,-0.00070631,-0.00096588,0.00025693,0.194
 70276,-0.00012950,-0.05685763,0.02087691,-0.00749169,0.00333815,0.0000
 0542,-0.00380162,-0.00305049,0.00038293,0.00427313,0.00409649,-0.00107
 091,-0.00109070,-0.00315642,0.00064090,0.01047115,-0.00091377,0.000311
 20,0.16149758,-0.64934901,0.15169835,-0.00526306,-0.00465029,0.0012632
 7,-0.22754222,0.73969125,0.00002978,0.02086039,0.01582494,0.00199365,0
 .00001075,0.00337788,0.00101521,0.00038528,-0.00170320,-0.00113900,-0.
 00107512,0.00035442,0.00029369,0.00064253,-0.00092102,-0.00279804,0.00
 030261,0.00014209,-0.04315748,0.15170824,-0.12181301,0.00140343,0.0012
 6703,-0.00023482,0.06083072,-0.18830568,0.08488814,-0.04369503,-0.0045
 4651,0.00117591,-0.00394027,0.00306708,-0.00082175,-0.00189597,-0.0012
 6969,0.00033752,0.00140882,0.00418509,-0.00111508,-0.00121384,-0.00306
 396,0.00081632,0.00343668,-0.00447481,0.00119513,-0.26824139,0.0321840
 3,-0.00871940,-0.00334125,-0.00396583,0.00105501,-0.05012577,0.0677243
 0,-0.01812298,0.51724064,-0.03159123,0.00908421,0.00077176,-0.00131536
 ,-0.00396017,0.00118595,-0.00018901,0.00125424,-0.00051030,-0.00043496
 ,0.00132716,-0.00034043,-0.00236194,-0.00038929,-0.00003813,-0.0001193
 6,-0.00482683,0.00173361,0.00391134,-0.12688038,0.01625637,-0.00094897
 ,-0.00069715,0.00019412,0.07909401,-0.02203273,0.01386152,0.12146163,0
 .52493585,0.00838475,0.00078821,0.01185491,0.00034791,0.00118874,0.000
 17182,0.00004970,-0.00051094,-0.00052276,0.00011682,-0.00033723,0.0001
 4202,0.00062962,-0.00003833,-0.00051375,0.00003309,0.00173100,0.001212
 17,-0.00117281,0.01627328,-0.07029149,0.00025082,0.00019224,-0.0000173
 8,-0.02115785,0.01385537,0.02601052,-0.03207939,-0.12991224,0.07227068
 ,0.00378211,0.00318127,-0.00084563,-0.00161736,-0.00067335,0.00017723,
 0.00579201,-0.00010410,0.00002939,-0.04288295,-0.01931730,0.00511983,0
 .00676566,0.00625003,-0.00165995,-0.00441132,-0.00011941,0.00002795,-0
 .00345181,-0.00436846,0.00116282,-0.23982879,0.01536484,-0.00424948,0.
 00039041,0.00258877,-0.00069036,0.00173962,0.00047644,-0.00012593,0.48
 643057,-0.00066607,0.00002557,0.00003356,-0.00129727,0.00019412,0.0003
 7112,-0.00056587,-0.00405816,0.00194954,-0.03855596,0.00060257,-0.0014
 3224,-0.00440582,-0.00368655,0.00051384,-0.00000340,0.00073412,-0.0000
 5048,0.00012539,0.00039167,-0.00019987,0.04625051,-0.09218497,0.008317
 48,0.00002274,-0.00023497,0.00007155,-0.00008220,-0.00009439,0.0000356
 7,0.02685081,0.62594564,0.00018079,0.00003657,0.00014368,0.00034360,0.
 00037167,0.00149025,0.00015321,0.00195025,0.00273311,0.01025223,-0.001
 41583,-0.00425745,0.00118216,0.00052313,-0.00188397,-0.00000344,-0.000
 05056,0.00055863,-0.00003600,-0.00020364,-0.00030394,-0.01248939,0.008
 29075,-0.06337191,-0.00000577,0.00007367,0.00001354,0.00002334,0.00003
 614,0.00002995,-0.00724252,-0.01233669,0.58289161,-0.00712805,0.000455
 07,-0.00013020,-0.34049671,0.04442078,-0.01208406,-0.01307110,0.004366
 71,-0.00117919,0.00032363,-0.00243251,0.00064215,0.00050092,-0.0005895
 7,0.00015837,0.00135008,0.00200119,-0.00053710,-0.00118709,0.00020462,
 -0.00005243,-0.00109465,0.00006801,-0.00001900,0.00029137,0.00011580,-
 0.00003112,-0.00093341,-0.00299793,0.00079884,0.00015869,-0.00019453,0
 .00005232,0.36056755,0.02744770,0.00169626,0.00067975,0.04264512,-0.06
 460232,0.00607660,-0.02405065,0.00792154,-0.00071980,-0.00257984,-0.00
 260431,0.00299948,-0.00057180,-0.00105869,0.00003236,0.00172619,-0.005
 07482,0.00289112,0.00339852,0.00032731,-0.00108682,-0.00140727,0.00035
 389,-0.00010940,-0.00099872,0.00068891,-0.00003806,-0.00231421,-0.0015
 3860,0.00046470,-0.00001018,-0.00032545,-0.00000524,-0.04504851,0.0634
 3705,-0.00732937,0.00065914,0.00398123,-0.01160996,0.00607715,-0.04357
 391,0.00639970,-0.00069695,0.00548542,0.00068120,0.00299970,0.00785077
 ,0.00015352,0.00003217,-0.00094405,-0.00046364,0.00289137,0.00498932,-
 0.00090468,-0.00108948,-0.00346686,0.00037447,-0.00010816,-0.00002278,
 0.00026624,-0.00003702,0.00055927,0.00061656,0.00046402,0.00008586,0.0
 0000316,-0.00000546,-0.00034380,0.01227833,-0.00956182,0.03027794,-0.0
 0196398,-0.00330597,0.00087386,0.01170739,-0.01916626,0.00511849,-0.09
 299612,0.08968103,-0.02396216,-0.00560609,0.02974398,-0.00794124,-0.00
 583212,0.00013288,-0.00004388,-0.00140810,-0.00093230,0.00024811,0.001
 02997,-0.00057546,0.00015347,0.00268202,-0.00009544,0.00003019,-0.0002
 8814,-0.00052632,0.00014061,-0.00014461,0.00006778,-0.00001813,-0.0002
 0283,-0.00020808,0.00005576,0.00084674,0.00063936,-0.00016606,0.092146
 75,-0.00394028,-0.00052085,0.00219490,0.00929886,-0.01540878,0.0049109
 9,0.09163722,-0.29331481,0.06857402,-0.00058254,-0.00198886,0.00197003
 ,0.00081914,0.00121430,0.00096776,-0.00031789,0.00047711,-0.00032286,0
 .00123471,0.00002255,0.00022013,-0.00058236,0.00023892,-0.00093712,-0.
 00028695,-0.00065902,0.00005898,-0.00032425,-0.00003427,0.00000303,0.0
 0014455,0.00018337,-0.00020992,-0.00009377,0.00049609,-0.00139111,-0.0
 9684444,0.30949831,0.00104333,0.00219542,0.00713658,-0.00247298,0.0048
 8843,0.00167223,-0.02448390,0.06857239,-0.05476993,0.00014665,0.001994
 11,0.00486807,-0.00022702,0.00096718,0.00458220,0.00008417,-0.00032336
 ,-0.00064618,-0.00032923,0.00021886,0.00078611,0.00016016,-0.00093662,
 -0.00302310,0.00007663,0.00005864,-0.00045302,0.00008640,0.00000328,-0
 .00002302,-0.00003830,-0.00021024,-0.00054821,0.00002940,-0.00139052,-
 0.00434889,0.02588087,-0.07589710,0.04546459,0.00021817,-0.00355962,0.
 00094346,0.00069317,-0.00002499,0.00000780,0.00077516,0.00194081,-0.00
 052136,-0.00709134,0.00038141,-0.00011024,-0.33906862,0.05086899,-0.01
 380682,-0.01521939,0.00443876,-0.00119758,-0.00025170,0.00104290,-0.00
 027901,-0.00092490,-0.00029989,0.00008135,-0.00000222,-0.00037137,0.00
 009911,-0.00041395,-0.00032790,0.00008736,-0.00128130,-0.00269643,0.00
 071821,-0.00008182,0.00001776,-0.00000413,-0.00036597,-0.00017959,0.00
 004767,0.36224185,-0.00308801,-0.00256752,0.00269044,-0.00042568,-0.00
 165407,0.00023262,0.00138851,-0.00470716,0.00274364,0.02818852,0.00294
 165,0.00019865,0.04970155,-0.06539873,0.00848090,-0.02450225,0.0080864
 6,-0.00158350,-0.00082309,0.00107835,-0.00008024,-0.00197364,0.0013537
 8,-0.00109018,0.00013675,-0.00024609,0.00006259,-0.00044062,-0.0004073
 2,0.00005004,0.00031508,-0.00232194,0.00050943,-0.00000594,0.00002587,
 -0.00023263,0.00144968,-0.00008379,0.00000420,-0.04859159,0.06509823,0
 .00081768,0.00269035,0.00681365,0.00011470,0.00023286,-0.00084255,-0.0
 0037406,0.00274405,0.00484400,-0.00752644,0.00017648,0.00354975,-0.013
 49554,0.00848202,-0.03601854,0.00652077,-0.00156065,0.00264270,0.00021
 874,-0.00007871,0.00080166,0.00052780,-0.00108878,-0.00243683,-0.00003
 647,0.00006218,-0.00002866,0.00011733,0.00005003,-0.00023200,-0.000084
 61,0.00050699,-0.00054783,0.00000219,-0.00023260,-0.00078429,-0.000386
 86,0.00000289,-0.00007351,0.01322558,-0.01093400,0.02716943,-0.0048868
 1,0.02860536,-0.00763685,-0.00626657,0.00005334,-0.00002396,-0.0008499
 3,-0.00077295,0.00020633,-0.00231425,-0.00321149,0.00084831,0.01082535
 ,-0.01910811,0.00510046,-0.09452630,0.09070105,-0.02423083,-0.00133121
 ,0.00382998,-0.00101917,0.00028891,-0.00133179,0.00035588,0.00126796,-
 0.00209419,0.00055986,0.00133233,-0.00076540,0.00020490,0.00036262,0.0
 0003849,-0.00000995,-0.00033322,0.00155374,-0.00041497,0.00007727,0.00
 005237,-0.00001335,0.00090881,0.00056631,-0.00014683,0.09574502,0.0019
 4405,-0.00068704,0.00160619,0.00043311,0.00181630,0.00109264,-0.000798
 19,0.00020899,-0.00034126,-0.00313102,-0.00044218,0.00223579,0.0086468
 9,-0.01393580,0.00505597,0.09250964,-0.29213525,0.06679353,-0.00054187
 ,-0.00107835,-0.00082946,0.00019637,-0.00114738,0.00015943,-0.00194474
 ,-0.00066275,0.00011872,0.00060282,-0.00004291,0.00003965,0.00041930,-
 0.00001651,0.00000041,-0.00010607,0.00005651,0.00009553,0.00001078,-0.
 00012211,-0.00015451,-0.00003025,0.00058612,-0.00132403,-0.09810855,0.
 30750052,-0.00052564,0.00162718,0.00489492,-0.00012522,0.00109242,0.00
 562039,0.00021285,-0.00034135,-0.00097703,0.00082702,0.00223562,0.0073
 5495,-0.00230123,0.00503418,0.00365256,-0.02471399,0.06679237,-0.05978
 990,0.00014644,-0.00082658,-0.00396700,-0.00005168,0.00015814,-0.00059
 246,0.00051981,0.00011883,-0.00024294,-0.00015976,0.00003871,0.0000938
 4,-0.00011152,0.00000008,-0.00001642,0.00002767,0.00009687,0.00038930,
 -0.00000226,-0.00015449,-0.00066032,0.00001225,-0.00132350,-0.00402537
 ,0.02621842,-0.07459425,0.04800428,-0.00481444,0.00442949,-0.00118701,
 0.00032575,0.00092920,-0.00024744,0.00058033,-0.00006124,0.00001671,-0
 .00029463,-0.00036631,0.00009743,-0.00046276,0.00066630,-0.00017787,-0
 .00073289,-0.00157457,0.00041894,-0.03932923,-0.04903309,0.01305064,0.
 00057120,0.00051465,-0.00013678,0.00965604,0.00232662,-0.00061019,-0.1
 5081683,-0.16387011,0.04362683,-0.00027699,0.00001266,-0.00000362,0.00
 041133,-0.00030730,0.00008237,0.00000562,0.00002916,-0.00000778,-0.000
 04224,-0.00011006,0.00002937,-0.00019956,0.00001098,-0.00000317,0.1853
 4729,0.00264051,0.00093022,0.00089125,0.00022703,-0.00005678,-0.000045
 61,-0.00004054,0.00005078,0.00001382,-0.00001407,-0.00035635,0.0001222
 9,0.00012611,0.00033987,-0.00020053,-0.00006383,0.00022130,0.00013301,
 -0.00365037,0.01337508,-0.00251444,0.00020493,0.00022305,-0.00006905,0
 .00344715,-0.00633983,0.00015608,-0.20898622,-0.37575683,0.09619067,-0
 .00012564,0.00000609,0.00000353,-0.00021344,0.00015585,-0.00007749,-0.
 00000987,0.00000668,0.00000087,0.00003314,0.00000659,-0.00002833,-0.00
 003724,0.00004373,0.00003904,0.20644150,0.36716730,-0.00071138,0.00089
 099,0.00402458,-0.00006021,-0.00004531,-0.00021640,0.00001114,0.000013
 88,0.00009901,0.00000339,0.00012212,0.00006956,-0.00003359,-0.00020036
 ,-0.00035891,0.00001609,0.00013206,0.00068446,0.00094788,-0.00254065,0
 .00464151,-0.00005428,-0.00006890,-0.00001810,-0.00090912,0.00015392,-
 0.00580804,0.05566008,0.09621971,-0.04028191,0.00003333,0.00000363,0.0
 0001876,0.00005727,-0.00007747,-0.00011314,0.00000264,0.00000090,0.000
 00972,-0.00000879,-0.00002839,-0.00009208,0.00000965,0.00003905,0.0001
 7975,-0.05495858,-0.09461773,0.03716894,-0.00001556,-0.00022159,0.0000
 5916,-0.00036039,0.00057258,-0.00015295,-0.00088525,-0.00168800,0.0004
 4929,-0.00415619,0.00373154,-0.00099974,-0.00060488,0.00089913,-0.0002
 4056,0.00031773,-0.00033340,0.00008900,0.00026266,0.00028238,-0.000075
 09,-0.03038686,-0.03658920,0.00973166,-0.00003009,-0.00019687,0.000052
 50,-0.00011094,-0.00003649,0.00000966,-0.07908851,-0.08145458,0.021698
 09,-0.00007345,-0.00011789,0.00003142,-0.00002005,0.00003816,-0.000010
 23,0.00073730,-0.00002490,0.00000760,-0.00005133,-0.00004393,0.0000116
 4,0.00002580,0.00000568,-0.00000150,0.10433637,-0.00022323,-0.00007498
 ,-0.00000270,-0.00000650,-0.00013926,0.00004006,0.00016680,0.00024989,
 -0.00000178,0.00193660,0.00125821,-0.00022287,0.00046462,-0.00047871,0
 .00024404,-0.00008061,0.00029887,-0.00002290,0.00015533,0.00021690,-0.
 00006761,0.00225199,0.00752737,-0.00188583,-0.00004877,-0.00011848,0.0
 0003233,-0.00013463,-0.00004767,0.00001340,-0.09564166,-0.28004097,0.0
 6066465,0.00001063,0.00001125,-0.00001529,-0.00002000,-0.00000617,0.00
 000669,-0.00057834,0.00013859,-0.00015324,0.00001907,0.00001965,0.0000
 0653,0.00001778,0.00000924,-0.00000131,0.09998629,0.29365109,0.0000596
 6,-0.00000274,-0.00008364,0.00000143,0.00004065,0.00000018,-0.00004552
 ,-0.00000334,0.00024369,-0.00052009,-0.00022107,0.00047535,-0.00012465
 ,0.00024457,0.00036985,0.00002151,-0.00002312,0.00021962,-0.00004118,-
 0.00006751,-0.00001909,-0.00062704,-0.00191932,0.00095871,0.00001298,0
 .00003220,-0.00000574,0.00003582,0.00001346,-0.00000066,0.02548142,0.0
 6067677,-0.06839947,-0.00000286,-0.00001541,-0.00004205,0.00000530,0.0
 0000674,0.00001718,0.00015525,-0.00015280,-0.00039359,-0.00000516,0.00
 000648,0.00004234,-0.00000472,-0.00000131,0.00000465,-0.02661482,-0.06
 553016,0.06504301,0.00030757,-0.00085658,0.00027326,0.00032291,0.00097
 017,-0.00059364,-0.00187297,-0.00096833,-0.00049046,0.00475671,0.00686
 754,-0.00018621,0.00085092,-0.00089448,0.00003735,-0.00055388,-0.00040
 716,-0.00029466,0.00034654,0.00037288,0.00002184,-0.03167599,0.0244909
 8,0.02431856,-0.00004286,-0.00025078,0.00004368,-0.00014241,-0.0000310
 3,-0.00001096,-0.06628109,0.04186365,0.04265871,-0.00002548,0.00000911
 ,0.00007848,0.00016604,0.00000334,0.00021776,-0.00041585,-0.00065071,0
 .00109745,-0.00002458,-0.00002786,0.00003482,0.00002311,0.00000747,-0.
 00000245,0.00506149,-0.00675205,-0.00869367,0.08454067,0.00082537,0.00
 004032,-0.00007079,-0.00007046,0.00041594,-0.00013376,-0.00012124,-0.0
 0005226,-0.00021030,-0.00080388,0.00015269,0.00120110,0.00100115,0.000
 26414,0.00024323,-0.00098073,-0.00040573,-0.00029326,-0.00035202,-0.00
 046160,0.00020584,0.00746138,0.00112146,0.00048991,0.00003277,0.000257
 49,-0.00007549,0.00019146,0.00005165,-0.00001880,0.04738436,-0.1752220
 7,-0.12129677,0.00002255,0.00002475,0.00001126,-0.00004183,-0.00000065
 ,-0.00001551,-0.00114430,-0.00050623,0.00141816,0.00001451,0.00003982,
 0.00004576,-0.00003008,-0.00001546,-0.00000373,0.00723769,-0.01720625,
 -0.02008791,-0.05717630,0.18525053,-0.00000759,0.00011889,-0.00006138,
 -0.00015778,-0.00022433,0.00003630,0.00036384,0.00028392,-0.00025883,-
 0.00068750,-0.00140630,0.00064931,0.00080683,-0.00059664,0.00001889,-0
 .00038353,0.00023730,-0.00003688,-0.00006530,-0.00007103,0.00001921,0.
 00313574,0.00427589,0.00637922,-0.00003248,0.00005708,-0.00000938,-0.0
 0004122,-0.00001523,0.00000749,0.04741431,-0.12035908,-0.17134924,0.00
 000535,0.00001266,0.00000247,-0.00007373,0.00001316,0.00000618,-0.0001
 4249,0.00063099,-0.00063085,0.00003444,0.00002616,-0.00000099,-0.00000
 100,-0.00000099,-0.00000369,-0.00344566,0.00620054,0.00674370,-0.05397
 381,0.13185473,0.17712790,0.00030810,-0.00087857,0.00019006,0.00032220
 ,0.00113699,0.00003217,-0.00187359,-0.00059547,0.00090490,0.00475844,0
 .00604754,-0.00325159,0.00085240,-0.00079454,0.00041464,-0.00055567,-0
 .00020639,0.00045754,0.00034643,0.00031222,-0.00020408,-0.03161847,0.0
 0911754,-0.03334730,-0.00004293,-0.00023901,0.00008691,-0.00014240,-0.
 00002149,0.00002478,-0.06609873,0.01496596,-0.05752773,-0.00002533,-0.
 00003115,-0.00007265,0.00016621,-0.00010545,-0.00019027,-0.00041516,-0
 .00110991,-0.00062840,-0.00002448,-0.00004147,-0.00001641,0.00002309,0
 .00000770,-0.00000156,0.00504216,-0.00152332,0.01090634,0.00465917,-0.
 00345043,0.00725158,0.08431856,0.00071968,-0.00000579,0.00003994,0.000
 01761,0.00047701,-0.00011892,-0.00028736,-0.00013567,0.00013925,-0.000
 35124,0.00036707,-0.00103984,0.00046736,0.00035585,-0.00043584,-0.0006
 6037,-0.00029050,0.00043793,-0.00027250,-0.00040057,0.00003476,0.00489
 048,0.00037260,0.00295638,0.00004456,0.00019917,-0.00004425,0.00018650
 ,0.00005545,-0.00000847,0.01738466,-0.06989719,0.06305846,0.00001691,0
 .00000890,-0.00001494,0.00000049,0.00000200,0.00001778,-0.00091950,-0.
 00142278,-0.00096569,-0.00000450,-0.00000137,-0.00004556,-0.00002558,-
 0.00001051,0.00000761,0.00795342,-0.00526858,0.02700382,-0.00656984,0.
 00625145,-0.02103773,-0.02259077,0.06934347,-0.00040389,-0.00015250,-0
 .00001564,0.00017251,-0.00002652,-0.00002393,-0.00025780,-0.00035596,-
 0.00017472,0.00100279,0.00157994,0.00043416,-0.00119682,0.00040129,-0.
 00007398,0.00082035,-0.00009183,-0.00015054,0.00023242,0.00031270,-0.0
 0004181,-0.00649614,-0.00081172,0.00706891,0.00001178,-0.00017726,0.00
 004903,-0.00005983,-0.00001234,0.00000371,-0.06440113,0.06211382,-0.27
 685731,-0.00001593,-0.00001641,0.00001818,0.00008503,-0.00001093,0.000
 00331,0.00069237,-0.00017827,0.00028489,-0.00003718,-0.00002603,0.0000
 4011,0.00001589,0.00000492,-0.00000863,-0.00059946,0.00069545,-0.00517
 405,-0.00453604,0.00673632,-0.01863944,0.07497108,-0.06998470,0.293257
 77\\-0.00001933,-0.00002633,-0.00000620,-0.00000479,0.00006085,-0.0000
 1772,0.00001198,-0.00002168,0.00000658,0.00001912,-0.00002251,0.000004
 98,-0.00002922,0.00002639,-0.00000597,0.00000408,-0.00000205,-0.000001
 06,0.00016685,-0.00009399,0.00007177,-0.00005031,0.00002081,-0.0000043
 5,-0.00007688,0.00006582,-0.00003549,-0.00011336,-0.00005369,0.0000002
 9,0.00003176,-0.00000752,0.00000133,0.00001816,-0.00000646,0.00000159,
 -0.00000090,0.00001912,-0.00000493,0.00001629,-0.00000119,0.00000060,0
 .00000186,0.00000204,-0.00000061,0.00003109,0.00002611,-0.00000707,0.0
 0000498,-0.00000407,0.00000093,-0.00000573,0.00001075,0.00000396,-0.00
 000563,0.00000759,-0.00000862\\\@
 The archive entry for this job was punched.


 THE WORLD IS NOT A HAMBURGER - YOU CAN'T HAVE IT YOUR WAY.
 Job cpu time:       0 days 18 hours 38 minutes 53.7 seconds.
 Elapsed time:       0 days  0 hours 55 minutes 57.8 seconds.
 File lengths (MBytes):  RWF=    588 Int=      0 D2E=      0 Chk=     38 Scr=      1
 Normal termination of Gaussian 16 at Thu Apr 27 12:37:22 2023.
