 Entering Gaussian System, Link 0=g16
 Initial command:
 /usr/local/gaussian16c01/g16/l1.exe "/scr/akj/Gau-64347.inp" -scrdir="/scr/akj/"
 Entering Link 1 = /usr/local/gaussian16c01/g16/l1.exe PID=     64348.
  
 Copyright (c) 1988-2019, Gaussian, Inc.  All Rights Reserved.
  
 This is part of the Gaussian(R) 16 program.  It is based on
 the Gaussian(R) 09 system (copyright 2009, Gaussian, Inc.),
 the Gaussian(R) 03 system (copyright 2003, Gaussian, Inc.),
 the Gaussian(R) 98 system (copyright 1998, Gaussian, Inc.),
 the Gaussian(R) 94 system (copyright 1995, Gaussian, Inc.),
 the Gaussian 92(TM) system (copyright 1992, Gaussian, Inc.),
 the Gaussian 90(TM) system (copyright 1990, Gaussian, Inc.),
 the Gaussian 88(TM) system (copyright 1988, Gaussian, Inc.),
 the Gaussian 86(TM) system (copyright 1986, Carnegie Mellon
 University), and the Gaussian 82(TM) system (copyright 1983,
 Carnegie Mellon University). Gaussian is a federally registered
 trademark of Gaussian, Inc.
  
 This software contains proprietary and confidential information,
 including trade secrets, belonging to Gaussian, Inc.
  
 This software is provided under written license and may be
 used, copied, transmitted, or stored only in accord with that
 written license.
  
 The following legend is applicable only to US Government
 contracts under FAR:
  
                    RESTRICTED RIGHTS LEGEND
  
 Use, reproduction and disclosure by the US Government is
 subject to restrictions as set forth in subparagraphs (a)
 and (c) of the Commercial Computer Software - Restricted
 Rights clause in FAR 52.227-19.
  
 Gaussian, Inc.
 340 Quinnipiac St., Bldg. 40, Wallingford CT 06492
  
  
 ---------------------------------------------------------------
 Warning -- This program may not be used in any manner that
 competes with the business of Gaussian, Inc. or will provide
 assistance to any competitor of Gaussian, Inc.  The licensee
 of this program is prohibited from giving any competitor of
 Gaussian, Inc. access to this program.  By using this program,
 the user acknowledges that Gaussian, Inc. is engaged in the
 business of creating and licensing software in the field of
 computational chemistry and represents and warrants to the
 licensee that it is not a competitor of Gaussian, Inc. and that
 it will not use this program in any manner prohibited above.
 ---------------------------------------------------------------
  

 Cite this work as:
 Gaussian 16, Revision C.01,
 M. J. Frisch, G. W. Trucks, H. B. Schlegel, G. E. Scuseria, 
 M. A. Robb, J. R. Cheeseman, G. Scalmani, V. Barone, 
 G. A. Petersson, H. Nakatsuji, X. Li, M. Caricato, A. V. Marenich, 
 J. Bloino, B. G. Janesko, R. Gomperts, B. Mennucci, H. P. Hratchian, 
 J. V. Ortiz, A. F. Izmaylov, J. L. Sonnenberg, D. Williams-Young, 
 F. Ding, F. Lipparini, F. Egidi, J. Goings, B. Peng, A. Petrone, 
 T. Henderson, D. Ranasinghe, V. G. Zakrzewski, J. Gao, N. Rega, 
 G. Zheng, W. Liang, M. Hada, M. Ehara, K. Toyota, R. Fukuda, 
 J. Hasegawa, M. Ishida, T. Nakajima, Y. Honda, O. Kitao, H. Nakai, 
 T. Vreven, K. Throssell, J. A. Montgomery, Jr., J. E. Peralta, 
 F. Ogliaro, M. J. Bearpark, J. J. Heyd, E. N. Brothers, K. N. Kudin, 
 V. N. Staroverov, T. A. Keith, R. Kobayashi, J. Normand, 
 K. Raghavachari, A. P. Rendell, J. C. Burant, S. S. Iyengar, 
 J. Tomasi, M. Cossi, J. M. Millam, M. Klene, C. Adamo, R. Cammi, 
 J. W. Ochterski, R. L. Martin, K. Morokuma, O. Farkas, 
 J. B. Foresman, and D. J. Fox, Gaussian, Inc., Wallingford CT, 2019.
 
 ******************************************
 Gaussian 16:  ES64L-G16RevC.01  3-Jul-2019
                27-Apr-2023 
 ******************************************
 %nprocshared=20
 Will use up to   20 processors via shared memory.
 %mem=10000MW
 %chk=CYH-213-A_eq00000.chk
 ------------------------------------
 # opt freq M062x/aug-cc-pvtz pop=nbo
 ------------------------------------
 1/18=20,19=15,26=3,38=1/1,3;
 2/9=110,12=2,17=6,18=5,40=1/2;
 3/5=16,6=1,7=10,11=2,25=1,30=1,71=1,74=-55/1,2,3;
 4//1;
 5/5=2,38=5/2;
 6/7=2,8=2,9=2,10=2,28=1,40=1/1,7;
 7//1,2,3,16;
 1/18=20,19=15,26=3/3(2);
 2/9=110/2;
 99//99;
 2/9=110/2;
 3/5=16,6=1,7=10,11=2,25=1,30=1,71=1,74=-55/1,2,3;
 4/5=5,16=3,69=1/1;
 5/5=2,38=5/2;
 7//1,2,3,16;
 1/18=20,19=15,26=3/3(-5);
 2/9=110/2;
 6/7=2,8=2,9=2,10=2,19=2,28=1,40=1/1,7;
 99/9=1/99;
 -----------------
 CYH-213-A_eq00000
 -----------------
 Symbolic Z-matrix:
 Charge =  0 Multiplicity = 1
 C                    -0.6953    0.0492   -0.03761 
 C                    -0.04403  -1.18058  -0.09912 
 C                     1.33252  -1.24057  -0.00626 
 C                     2.05854  -0.0674    0.14847 
 C                     1.42257   1.16532   0.21134 
 C                     0.04685   1.2188    0.11796 
 C                    -2.16782   0.15613  -0.1332 
 O                    -2.78335   1.19174  -0.08619 
 O                    -2.77992  -1.02929  -0.28088 
 Cl                    3.77702  -0.14316   0.26433 
 H                    -0.62109  -2.08363  -0.21952 
 H                     1.84581  -2.18813  -0.05284 
 H                     2.00315   2.06624   0.33181 
 H                    -0.47611   2.16182   0.16346 
 H                    -3.73894  -0.8959   -0.33755 
 

 GradGradGradGradGradGradGradGradGradGradGradGradGradGradGradGradGradGrad
 Berny optimization.
 Initialization pass.
                           ----------------------------
                           !    Initial Parameters    !
                           ! (Angstroms and Degrees)  !
 --------------------------                            --------------------------
 ! Name  Definition              Value          Derivative Info.                !
 --------------------------------------------------------------------------------
 ! R1    R(1,2)                  1.3929         estimate D2E/DX2                !
 ! R2    R(1,6)                  1.3939         estimate D2E/DX2                !
 ! R3    R(1,7)                  1.4795         estimate D2E/DX2                !
 ! R4    R(2,3)                  1.381          estimate D2E/DX2                !
 ! R5    R(2,11)                 1.0784         estimate D2E/DX2                !
 ! R6    R(3,4)                  1.3883         estimate D2E/DX2                !
 ! R7    R(3,12)                 1.0787         estimate D2E/DX2                !
 ! R8    R(4,5)                  1.3885         estimate D2E/DX2                !
 ! R9    R(4,10)                 1.724          estimate D2E/DX2                !
 ! R10   R(5,6)                  1.3799         estimate D2E/DX2                !
 ! R11   R(5,13)                 1.0785         estimate D2E/DX2                !
 ! R12   R(6,14)                 1.0793         estimate D2E/DX2                !
 ! R13   R(7,8)                  1.2056         estimate D2E/DX2                !
 ! R14   R(7,9)                  1.3423         estimate D2E/DX2                !
 ! R15   R(9,15)                 0.9699         estimate D2E/DX2                !
 ! A1    A(2,1,6)              119.7882         estimate D2E/DX2                !
 ! A2    A(2,1,7)              121.7557         estimate D2E/DX2                !
 ! A3    A(6,1,7)              118.4561         estimate D2E/DX2                !
 ! A4    A(1,2,3)              120.0945         estimate D2E/DX2                !
 ! A5    A(1,2,11)             119.6067         estimate D2E/DX2                !
 ! A6    A(3,2,11)             120.2988         estimate D2E/DX2                !
 ! A7    A(2,3,4)              119.476          estimate D2E/DX2                !
 ! A8    A(2,3,12)             120.6364         estimate D2E/DX2                !
 ! A9    A(4,3,12)             119.8876         estimate D2E/DX2                !
 ! A10   A(3,4,5)              121.0473         estimate D2E/DX2                !
 ! A11   A(3,4,10)             119.4471         estimate D2E/DX2                !
 ! A12   A(5,4,10)             119.5056         estimate D2E/DX2                !
 ! A13   A(4,5,6)              119.2072         estimate D2E/DX2                !
 ! A14   A(4,5,13)             120.0056         estimate D2E/DX2                !
 ! A15   A(6,5,13)             120.7872         estimate D2E/DX2                !
 ! A16   A(1,6,5)              120.3868         estimate D2E/DX2                !
 ! A17   A(1,6,14)             118.6771         estimate D2E/DX2                !
 ! A18   A(5,6,14)             120.936          estimate D2E/DX2                !
 ! A19   A(1,7,8)              124.5899         estimate D2E/DX2                !
 ! A20   A(1,7,9)              113.4            estimate D2E/DX2                !
 ! A21   A(8,7,9)              122.0101         estimate D2E/DX2                !
 ! A22   A(7,9,15)             109.6253         estimate D2E/DX2                !
 ! D1    D(6,1,2,3)             -0.0004         estimate D2E/DX2                !
 ! D2    D(6,1,2,11)           179.9995         estimate D2E/DX2                !
 ! D3    D(7,1,2,3)            179.9996         estimate D2E/DX2                !
 ! D4    D(7,1,2,11)            -0.0005         estimate D2E/DX2                !
 ! D5    D(2,1,6,5)              0.0003         estimate D2E/DX2                !
 ! D6    D(2,1,6,14)          -179.9996         estimate D2E/DX2                !
 ! D7    D(7,1,6,5)           -179.9997         estimate D2E/DX2                !
 ! D8    D(7,1,6,14)             0.0004         estimate D2E/DX2                !
 ! D9    D(2,1,7,8)           -179.9995         estimate D2E/DX2                !
 ! D10   D(2,1,7,9)              0.0004         estimate D2E/DX2                !
 ! D11   D(6,1,7,8)              0.0005         estimate D2E/DX2                !
 ! D12   D(6,1,7,9)           -179.9996         estimate D2E/DX2                !
 ! D13   D(1,2,3,4)              0.0001         estimate D2E/DX2                !
 ! D14   D(1,2,3,12)           179.9999         estimate D2E/DX2                !
 ! D15   D(11,2,3,4)          -179.9997         estimate D2E/DX2                !
 ! D16   D(11,2,3,12)            0.0001         estimate D2E/DX2                !
 ! D17   D(2,3,4,5)              0.0002         estimate D2E/DX2                !
 ! D18   D(2,3,4,10)           179.9998         estimate D2E/DX2                !
 ! D19   D(12,3,4,5)          -179.9996         estimate D2E/DX2                !
 ! D20   D(12,3,4,10)            0.0            estimate D2E/DX2                !
 ! D21   D(3,4,5,6)             -0.0003         estimate D2E/DX2                !
 ! D22   D(3,4,5,13)           179.9994         estimate D2E/DX2                !
 ! D23   D(10,4,5,6)          -179.9999         estimate D2E/DX2                !
 ! D24   D(10,4,5,13)           -0.0001         estimate D2E/DX2                !
 ! D25   D(4,5,6,1)              0.0            estimate D2E/DX2                !
 ! D26   D(4,5,6,14)           179.9999         estimate D2E/DX2                !
 ! D27   D(13,5,6,1)          -179.9997         estimate D2E/DX2                !
 ! D28   D(13,5,6,14)            0.0002         estimate D2E/DX2                !
 ! D29   D(1,7,9,15)          -179.9997         estimate D2E/DX2                !
 ! D30   D(8,7,9,15)             0.0002         estimate D2E/DX2                !
 --------------------------------------------------------------------------------
 Trust Radius=3.00D-01 FncErr=1.00D-07 GrdErr=1.00D-06 EigMax=2.50D+02 EigMin=1.00D-04
 Number of steps in this run=     77 maximum allowed number of steps=    100.
 GradGradGradGradGradGradGradGradGradGradGradGradGradGradGradGradGradGrad

                          Input orientation:                          
 ---------------------------------------------------------------------
 Center     Atomic      Atomic             Coordinates (Angstroms)
 Number     Number       Type             X           Y           Z
 ---------------------------------------------------------------------
      1          6           0       -0.695299    0.049202   -0.037608
      2          6           0       -0.044031   -1.180582   -0.099125
      3          6           0        1.332524   -1.240572   -0.006262
      4          6           0        2.058537   -0.067398    0.148468
      5          6           0        1.422566    1.165321    0.211339
      6          6           0        0.046849    1.218804    0.117963
      7          6           0       -2.167821    0.156129   -0.133200
      8          8           0       -2.783355    1.191742   -0.086189
      9          8           0       -2.779916   -1.029290   -0.280880
     10         17           0        3.777020   -0.143158    0.264326
     11          1           0       -0.621088   -2.083632   -0.219522
     12          1           0        1.845811   -2.188128   -0.052841
     13          1           0        2.003151    2.066238    0.331814
     14          1           0       -0.476109    2.161823    0.163463
     15          1           0       -3.738940   -0.895900   -0.337546
 ---------------------------------------------------------------------
                    Distance matrix (angstroms):
                    1          2          3          4          5
     1  C    0.000000
     2  C    1.392947   0.000000
     3  C    2.403448   1.380987   0.000000
     4  C    2.762577   2.391919   1.388299   0.000000
     5  C    2.406875   2.783982   2.417391   1.388526   0.000000
     6  C    1.393899   2.410900   2.777935   2.387914   1.379919
     7  C    1.479491   2.509670   3.770849   4.241627   3.745405
     8  O    2.380701   3.623808   4.781527   5.008434   4.216514
     9  O    2.359651   2.746086   4.127011   4.951788   4.766493
    10  Cl   4.486624   3.976025   2.693158   1.724049   2.694137
    11  H    2.141863   1.078419   2.138417   3.373575   3.862364
    12  H    3.385723   2.142148   1.078655   2.140859   3.390361
    13  H    3.389180   3.862448   3.391022   2.142215   1.078539
    14  H    2.133458   3.380432   3.856975   3.375512   2.144826
    15  H    3.201083   3.713521   5.093946   5.876510   5.584895
                    6          7          8          9         10
     6  C    0.000000
     7  C    2.469236   0.000000
     8  O    2.837687   1.205648   0.000000
     9  O    3.633676   1.342270   2.229551   0.000000
    10  Cl   3.973730   5.965629   6.703979   6.638967   0.000000
    11  H    3.386165   2.723300   3.926990   2.403319   4.831449
    12  H    3.856504   4.648790   5.731825   4.774124   2.830559
    13  H    2.142661   4.611048   4.883658   5.730220   2.834183
    14  H    1.079278   2.640589   2.515307   3.960830   4.838617
    15  H    4.360236   1.901825   2.309670   0.969913   7.577501
                   11         12         13         14         15
    11  H    0.000000
    12  H    2.474731   0.000000
    13  H    4.940853   4.274617   0.000000
    14  H    4.265159   4.935603   2.486807   0.000000
    15  H    3.338508   5.739369   6.495685   4.499639   0.000000
 Stoichiometry    C7H5ClO2
 Framework group  C1[X(C7H5ClO2)]
 Deg. of freedom    39
 Full point group                 C1      NOp   1
 Largest Abelian subgroup         C1      NOp   1
 Largest concise Abelian subgroup C1      NOp   1
                         Standard orientation:                         
 ---------------------------------------------------------------------
 Center     Atomic      Atomic             Coordinates (Angstroms)
 Number     Number       Type             X           Y           Z
 ---------------------------------------------------------------------
      1          6           0       -1.079512    0.038169    0.000003
      2          6           0       -0.400595   -1.178126    0.000002
      3          6           0        0.980212   -1.200418   -0.000002
      4          6           0        1.682758   -0.003002   -0.000003
      5          6           0        1.019108    1.216660    0.000004
      6          6           0       -0.360721    1.232445    0.000007
      7          6           0       -2.557496    0.104925   -0.000001
      8          8           0       -3.196460    1.127330   -0.000010
      9          8           0       -3.145616   -1.101642    0.000004
     10         17           0        3.406568   -0.031703   -0.000002
     11          1           0       -0.959627   -2.100336    0.000007
     12          1           0        1.514829   -2.137264   -0.000001
     13          1           0        1.581722    2.136829    0.000013
     14          1           0       -0.904931    2.164473    0.000014
     15          1           0       -4.109558   -0.994185   -0.000003
 ---------------------------------------------------------------------
 Rotational constants (GHZ):           3.9115688           0.5585421           0.4887520
 Standard basis: Aug-CC-pVTZ (5D, 7F)
 There are   679 symmetry adapted cartesian basis functions of A   symmetry.
 There are   579 symmetry adapted basis functions of A   symmetry.
   579 basis functions,   897 primitive gaussians,   679 cartesian basis functions
    40 alpha electrons       40 beta electrons
       nuclear repulsion energy       548.1641293142 Hartrees.
 NAtoms=   15 NActive=   15 NUniq=   15 SFac= 1.00D+00 NAtFMM=   60 NAOKFM=F Big=F
 Integral buffers will be    131072 words long.
 Raffenetti 2 integral format.
 Two-electron integral symmetry is turned on.
 One-electron integrals computed using PRISM.
 NBasis=   579 RedAO= T EigKep=  1.33D-06  NBF=   579
 NBsUse=   577 1.00D-06 EigRej=  9.28D-07 NBFU=   577
 ExpMin= 2.53D-02 ExpMax= 4.56D+05 ExpMxC= 1.44D+03 IAcc=3 IRadAn=         5 AccDes= 0.00D+00
 Harris functional with IExCor= 1009 and IRadAn=       5 diagonalized for initial guess.
 HarFok:  IExCor= 1009 AccDes= 0.00D+00 IRadAn=         5 IDoV= 1 UseB2=F ITyADJ=14
 ICtDFT=  3500011 ScaDFX=  1.000000  1.000000  1.000000  1.000000
 FoFCou: FMM=F IPFlag=           0 FMFlag=      100000 FMFlg1=           0
         NFxFlg=           0 DoJE=T BraDBF=F KetDBF=T FulRan=T
         wScrn=  0.000000 ICntrl=       500 IOpCl=  0 I1Cent=   200000004 NGrid=           0
         NMat0=    1 NMatS0=      1 NMatT0=    0 NMatD0=    1 NMtDS0=    0 NMtDT0=    0
 Petite list used in FoFCou.
 Requested convergence on RMS density matrix=1.00D-08 within 128 cycles.
 Requested convergence on MAX density matrix=1.00D-06.
 Requested convergence on             energy=1.00D-06.
 No special actions if energy rises.
 SCF Done:  E(RM062X) =  -880.429378366     A.U. after   14 cycles
            NFock= 14  Conv=0.46D-08     -V/T= 2.0035

 **********************************************************************

            Population analysis using the SCF Density.

 **********************************************************************

 Orbital symmetries:
       Occupied  (A) (A) (A) (A) (A) (A) (A) (A) (A) (A) (A) (A)
                 (A) (A) (A) (A) (A) (A) (A) (A) (A) (A) (A) (A)
                 (A) (A) (A) (A) (A) (A) (A) (A) (A) (A) (A) (A)
                 (A) (A) (A) (A)
       Virtual   (A) (A) (A) (A) (A) (A) (A) (A) (A) (A) (A) (A)
                 (A) (A) (A) (A) (A) (A) (A) (A) (A) (A) (A) (A)
                 (A) (A) (A) (A) (A) (A) (A) (A) (A) (A) (A) (A)
                 (A) (A) (A) (A) (A) (A) (A) (A) (A) (A) (A) (A)
                 (A) (A) (A) (A) (A) (A) (A) (A) (A) (A) (A) (A)
                 (A) (A) (A) (A) (A) (A) (A) (A) (A) (A) (A) (A)
                 (A) (A) (A) (A) (A) (A) (A) (A) (A) (A) (A) (A)
                 (A) (A) (A) (A) (A) (A) (A) (A) (A) (A) (A) (A)
                 (A) (A) (A) (A) (A) (A) (A) (A) (A) (A) (A) (A)
                 (A) (A) (A) (A) (A) (A) (A) (A) (A) (A) (A) (A)
                 (A) (A) (A) (A) (A) (A) (A) (A) (A) (A) (A) (A)
                 (A) (A) (A) (A) (A) (A) (A) (A) (A) (A) (A) (A)
                 (A) (A) (A) (A) (A) (A) (A) (A) (A) (A) (A) (A)
                 (A) (A) (A) (A) (A) (A) (A) (A) (A) (A) (A) (A)
                 (A) (A) (A) (A) (A) (A) (A) (A) (A) (A) (A) (A)
                 (A) (A) (A) (A) (A) (A) (A) (A) (A) (A) (A) (A)
                 (A) (A) (A) (A) (A) (A) (A) (A) (A) (A) (A) (A)
                 (A) (A) (A) (A) (A) (A) (A) (A) (A) (A) (A) (A)
                 (A) (A) (A) (A) (A) (A) (A) (A) (A) (A) (A) (A)
                 (A) (A) (A) (A) (A) (A) (A) (A) (A) (A) (A) (A)
                 (A) (A) (A) (A) (A) (A) (A) (A) (A) (A) (A) (A)
                 (A) (A) (A) (A) (A) (A) (A) (A) (A) (A) (A) (A)
                 (A) (A) (A) (A) (A) (A) (A) (A) (A) (A) (A) (A)
                 (A) (A) (A) (A) (A) (A) (A) (A) (A) (A) (A) (A)
                 (A) (A) (A) (A) (A) (A) (A) (A) (A) (A) (A) (A)
                 (A) (A) (A) (A) (A) (A) (A) (A) (A) (A) (A) (A)
                 (A) (A) (A) (A) (A) (A) (A) (A) (A) (A) (A) (A)
                 (A) (A) (A) (A) (A) (A) (A) (A) (A) (A) (A) (A)
                 (A) (A) (A) (A) (A) (A) (A) (A) (A) (A) (A) (A)
                 (A) (A) (A) (A) (A) (A) (A) (A) (A) (A) (A) (A)
                 (A) (A) (A) (A) (A) (A) (A) (A) (A) (A) (A) (A)
                 (A) (A) (A) (A) (A) (A) (A) (A) (A) (A) (A) (A)
                 (A) (A) (A) (A) (A) (A) (A) (A) (A) (A) (A) (A)
                 (A) (A) (A) (A) (A) (A) (A) (A) (A) (A) (A) (A)
                 (A) (A) (A) (A) (A) (A) (A) (A) (A) (A) (A) (A)
                 (A) (A) (A) (A) (A) (A) (A) (A) (A) (A) (A) (A)
                 (A) (A) (A) (A) (A) (A) (A) (A) (A) (A) (A) (A)
                 (A) (A) (A) (A) (A) (A) (A) (A) (A) (A) (A) (A)
                 (A) (A) (A) (A) (A) (A) (A) (A) (A) (A) (A) (A)
                 (A) (A) (A) (A) (A) (A) (A) (A) (A) (A) (A) (A)
                 (A) (A) (A) (A) (A) (A) (A) (A) (A) (A) (A) (A)
                 (A) (A) (A) (A) (A) (A) (A) (A) (A) (A) (A) (A)
                 (A) (A) (A) (A) (A) (A) (A) (A) (A) (A) (A) (A)
                 (A) (A) (A) (A) (A) (A) (A) (A) (A) (A) (A) (A)
                 (A) (A) (A) (A) (A) (A) (A) (A) (A)
 The electronic state is 1-A.
 Alpha  occ. eigenvalues -- -102.69242 -19.68398 -19.62517 -10.69004 -10.62563
 Alpha  occ. eigenvalues --  -10.57516 -10.57260 -10.57078 -10.56945 -10.56909
 Alpha  occ. eigenvalues --   -9.82955  -7.55188  -7.54649  -7.54620  -1.25052
 Alpha  occ. eigenvalues --   -1.15204  -1.01930  -0.96237  -0.87764  -0.86683
 Alpha  occ. eigenvalues --   -0.75975  -0.72570  -0.68716  -0.63155  -0.59365
 Alpha  occ. eigenvalues --   -0.56323  -0.55449  -0.55290  -0.53819  -0.51902
 Alpha  occ. eigenvalues --   -0.49106  -0.48830  -0.45275  -0.43632  -0.42241
 Alpha  occ. eigenvalues --   -0.40715  -0.39064  -0.37106  -0.33849  -0.31807
 Alpha virt. eigenvalues --   -0.03728  -0.00959  -0.00509   0.00115   0.00614
 Alpha virt. eigenvalues --    0.01898   0.02718   0.03035   0.03491   0.04536
 Alpha virt. eigenvalues --    0.04691   0.05845   0.05929   0.06812   0.07286
 Alpha virt. eigenvalues --    0.07969   0.08151   0.08367   0.08723   0.08783
 Alpha virt. eigenvalues --    0.09503   0.09728   0.10046   0.10411   0.10577
 Alpha virt. eigenvalues --    0.10614   0.11230   0.11853   0.12768   0.13719
 Alpha virt. eigenvalues --    0.14122   0.14563   0.15304   0.15482   0.15898
 Alpha virt. eigenvalues --    0.16993   0.17531   0.18976   0.19161   0.19809
 Alpha virt. eigenvalues --    0.19818   0.20228   0.20505   0.21345   0.21808
 Alpha virt. eigenvalues --    0.22709   0.22749   0.22875   0.23614   0.23619
 Alpha virt. eigenvalues --    0.24541   0.24914   0.25816   0.26131   0.26387
 Alpha virt. eigenvalues --    0.26802   0.27108   0.27719   0.29164   0.29696
 Alpha virt. eigenvalues --    0.30472   0.30692   0.31200   0.31252   0.32451
 Alpha virt. eigenvalues --    0.32902   0.34018   0.34061   0.34225   0.34564
 Alpha virt. eigenvalues --    0.35075   0.35536   0.35644   0.36325   0.37153
 Alpha virt. eigenvalues --    0.37418   0.37885   0.38260   0.38830   0.39093
 Alpha virt. eigenvalues --    0.39699   0.39791   0.40628   0.40976   0.41429
 Alpha virt. eigenvalues --    0.41664   0.42278   0.42993   0.43895   0.45028
 Alpha virt. eigenvalues --    0.45316   0.45577   0.46542   0.47100   0.47353
 Alpha virt. eigenvalues --    0.48492   0.49183   0.51504   0.51873   0.52083
 Alpha virt. eigenvalues --    0.52820   0.53278   0.54200   0.54495   0.54950
 Alpha virt. eigenvalues --    0.55342   0.57228   0.57804   0.57845   0.57981
 Alpha virt. eigenvalues --    0.59974   0.60612   0.61227   0.61361   0.63460
 Alpha virt. eigenvalues --    0.64350   0.64844   0.65094   0.65456   0.66390
 Alpha virt. eigenvalues --    0.66404   0.67162   0.68494   0.70450   0.71196
 Alpha virt. eigenvalues --    0.72281   0.72568   0.72945   0.73372   0.73761
 Alpha virt. eigenvalues --    0.73962   0.74187   0.74938   0.75781   0.76565
 Alpha virt. eigenvalues --    0.76646   0.77399   0.77851   0.78284   0.78629
 Alpha virt. eigenvalues --    0.79054   0.79374   0.80557   0.80745   0.81453
 Alpha virt. eigenvalues --    0.81523   0.82399   0.82680   0.84232   0.84253
 Alpha virt. eigenvalues --    0.84549   0.85096   0.85877   0.86793   0.87884
 Alpha virt. eigenvalues --    0.88448   0.88810   0.89819   0.90062   0.90114
 Alpha virt. eigenvalues --    0.92067   0.92549   0.93153   0.93251   0.94022
 Alpha virt. eigenvalues --    0.94902   0.95402   0.95839   0.95932   0.96480
 Alpha virt. eigenvalues --    0.96787   0.97167   0.97846   0.98953   0.99729
 Alpha virt. eigenvalues --    1.00360   1.01295   1.02036   1.02925   1.03349
 Alpha virt. eigenvalues --    1.03500   1.04540   1.05944   1.06970   1.07382
 Alpha virt. eigenvalues --    1.08174   1.09078   1.09458   1.10423   1.10899
 Alpha virt. eigenvalues --    1.12273   1.12826   1.12986   1.13387   1.13676
 Alpha virt. eigenvalues --    1.15692   1.17479   1.18036   1.18968   1.19720
 Alpha virt. eigenvalues --    1.20826   1.21962   1.23083   1.23460   1.24318
 Alpha virt. eigenvalues --    1.24375   1.26893   1.28376   1.30593   1.30868
 Alpha virt. eigenvalues --    1.32041   1.32825   1.32864   1.33746   1.34106
 Alpha virt. eigenvalues --    1.34411   1.37074   1.37170   1.38519   1.40178
 Alpha virt. eigenvalues --    1.41012   1.42527   1.42944   1.44695   1.45509
 Alpha virt. eigenvalues --    1.46010   1.47017   1.47696   1.48903   1.49975
 Alpha virt. eigenvalues --    1.50634   1.52602   1.53279   1.53878   1.55681
 Alpha virt. eigenvalues --    1.55735   1.57495   1.58774   1.59589   1.61024
 Alpha virt. eigenvalues --    1.62074   1.62296   1.62590   1.63599   1.64761
 Alpha virt. eigenvalues --    1.66063   1.67615   1.67925   1.68246   1.68383
 Alpha virt. eigenvalues --    1.69588   1.69734   1.71987   1.73598   1.75188
 Alpha virt. eigenvalues --    1.75274   1.76939   1.78176   1.78813   1.79389
 Alpha virt. eigenvalues --    1.81166   1.81929   1.82606   1.84654   1.85033
 Alpha virt. eigenvalues --    1.86497   1.86727   1.88824   1.89779   1.90037
 Alpha virt. eigenvalues --    1.90525   1.91579   1.92428   1.92979   1.93280
 Alpha virt. eigenvalues --    1.97481   1.98278   2.02368   2.04633   2.04773
 Alpha virt. eigenvalues --    2.06638   2.07022   2.08732   2.08850   2.11156
 Alpha virt. eigenvalues --    2.12803   2.14441   2.14459   2.17276   2.19312
 Alpha virt. eigenvalues --    2.20817   2.21797   2.22167   2.22651   2.24915
 Alpha virt. eigenvalues --    2.27122   2.28035   2.29845   2.29996   2.30475
 Alpha virt. eigenvalues --    2.31643   2.34451   2.34672   2.35438   2.35553
 Alpha virt. eigenvalues --    2.37166   2.39814   2.40183   2.40284   2.41953
 Alpha virt. eigenvalues --    2.47386   2.47596   2.48910   2.51096   2.51772
 Alpha virt. eigenvalues --    2.52178   2.53117   2.55711   2.56538   2.58748
 Alpha virt. eigenvalues --    2.60376   2.64692   2.64874   2.70102   2.70969
 Alpha virt. eigenvalues --    2.71876   2.73319   2.74503   2.74951   2.76625
 Alpha virt. eigenvalues --    2.77958   2.80682   2.81087   2.83626   2.85620
 Alpha virt. eigenvalues --    2.86982   2.88052   2.89273   2.90864   2.92210
 Alpha virt. eigenvalues --    2.94180   2.94210   2.95216   2.95978   2.96091
 Alpha virt. eigenvalues --    2.99411   3.01057   3.02406   3.04241   3.05899
 Alpha virt. eigenvalues --    3.06386   3.07606   3.09057   3.09403   3.10215
 Alpha virt. eigenvalues --    3.11474   3.12159   3.13398   3.14054   3.16304
 Alpha virt. eigenvalues --    3.18667   3.19398   3.20981   3.21496   3.24238
 Alpha virt. eigenvalues --    3.24899   3.25127   3.25679   3.28164   3.29906
 Alpha virt. eigenvalues --    3.31754   3.32375   3.33405   3.34678   3.36325
 Alpha virt. eigenvalues --    3.39732   3.40090   3.41387   3.42369   3.46956
 Alpha virt. eigenvalues --    3.47997   3.49465   3.51269   3.52249   3.52834
 Alpha virt. eigenvalues --    3.52976   3.54342   3.55535   3.56759   3.59486
 Alpha virt. eigenvalues --    3.59617   3.59780   3.60754   3.63350   3.65150
 Alpha virt. eigenvalues --    3.66516   3.67178   3.67409   3.70650   3.74234
 Alpha virt. eigenvalues --    3.74237   3.75547   3.76760   3.77147   3.79858
 Alpha virt. eigenvalues --    3.79899   3.81343   3.82865   3.84617   3.87226
 Alpha virt. eigenvalues --    3.87534   3.88128   3.90945   3.91192   3.91931
 Alpha virt. eigenvalues --    3.92517   3.93581   3.94178   3.94498   3.98174
 Alpha virt. eigenvalues --    4.00502   4.01792   4.02194   4.03539   4.05597
 Alpha virt. eigenvalues --    4.06309   4.09764   4.10189   4.10864   4.10902
 Alpha virt. eigenvalues --    4.11421   4.12911   4.17582   4.18312   4.18975
 Alpha virt. eigenvalues --    4.22631   4.24888   4.24910   4.27469   4.29031
 Alpha virt. eigenvalues --    4.29941   4.33308   4.33892   4.39606   4.40019
 Alpha virt. eigenvalues --    4.44382   4.45952   4.48137   4.49643   4.51477
 Alpha virt. eigenvalues --    4.52064   4.54289   4.55815   4.56781   4.58569
 Alpha virt. eigenvalues --    4.61882   4.64126   4.68186   4.68510   4.69586
 Alpha virt. eigenvalues --    4.72682   4.74843   4.76042   4.76339   4.77645
 Alpha virt. eigenvalues --    4.78584   4.83805   4.87038   4.88990   4.90992
 Alpha virt. eigenvalues --    4.93145   4.93171   4.95653   4.99216   5.01506
 Alpha virt. eigenvalues --    5.05480   5.06559   5.08011   5.13959   5.19220
 Alpha virt. eigenvalues --    5.24330   5.29616   5.30363   5.35387   5.38397
 Alpha virt. eigenvalues --    5.48379   5.50473   5.60442   5.66993   5.69504
 Alpha virt. eigenvalues --    5.74795   5.79212   5.81692   5.87077   5.89496
 Alpha virt. eigenvalues --    6.03912   6.06240   6.09036   6.21349   6.21901
 Alpha virt. eigenvalues --    6.33018   6.36174   6.36189   6.39234   6.42098
 Alpha virt. eigenvalues --    6.46569   6.53456   6.55318   6.56985   6.66887
 Alpha virt. eigenvalues --    6.70224   6.75166   6.80225   6.81443   6.83773
 Alpha virt. eigenvalues --    6.86058   6.91578   7.05234   7.06200   7.12187
 Alpha virt. eigenvalues --    7.13991   7.28417   7.34917   7.46739   7.58359
 Alpha virt. eigenvalues --    7.81235   8.04669   8.18262  14.80796  15.01723
 Alpha virt. eigenvalues --   16.06876  16.40985  17.66921  17.94794  18.94372
 Alpha virt. eigenvalues --   19.34782  19.58434
          Condensed to atoms (all electrons):
               1          2          3          4          5          6
     1  C    6.443288  -0.412846  -0.029158  -0.319466   0.053368  -0.444747
     2  C   -0.412846   6.942732   0.023446   0.015111  -0.232957   0.138200
     3  C   -0.029158   0.023446   6.845350  -0.142607  -0.072496  -0.220283
     4  C   -0.319466   0.015111  -0.142607   6.002744  -0.179250   0.025076
     5  C    0.053368  -0.232957  -0.072496  -0.179250   6.726441   0.085824
     6  C   -0.444747   0.138200  -0.220283   0.025076   0.085824   7.041165
     7  C   -0.361479  -0.322995   0.092335   0.025073  -0.027203  -0.209087
     8  O   -0.122874   0.020644  -0.015660  -0.003180  -0.001739   0.055660
     9  O   -0.107479   0.009110   0.000093  -0.002524   0.000538   0.017384
    10  Cl  -0.014640   0.003786  -0.059734   0.178712  -0.062673   0.007895
    11  H   -0.260351   0.414188  -0.292536   0.045692   0.005452   0.019399
    12  H    0.005592  -0.160613   0.474689  -0.203309   0.016551   0.037111
    13  H    0.020653   0.030774   0.009938  -0.201426   0.510625  -0.195167
    14  H   -0.268454   0.022208   0.023903   0.052818  -0.274830   0.422364
    15  H    0.026914  -0.009736   0.001925   0.000727  -0.001030  -0.018342
               7          8          9         10         11         12
     1  C   -0.361479  -0.122874  -0.107479  -0.014640  -0.260351   0.005592
     2  C   -0.322995   0.020644   0.009110   0.003786   0.414188  -0.160613
     3  C    0.092335  -0.015660   0.000093  -0.059734  -0.292536   0.474689
     4  C    0.025073  -0.003180  -0.002524   0.178712   0.045692  -0.203309
     5  C   -0.027203  -0.001739   0.000538  -0.062673   0.005452   0.016551
     6  C   -0.209087   0.055660   0.017384   0.007895   0.019399   0.037111
     7  C    6.234723  -0.071824   0.129727  -0.006668   0.055374  -0.003759
     8  O   -0.071824   9.234189  -0.071756  -0.000051  -0.004157  -0.000013
     9  O    0.129727  -0.071756   8.509242  -0.000063  -0.082058   0.000154
    10  Cl  -0.006668  -0.000051  -0.000063  17.332613  -0.001122  -0.046618
    11  H    0.055374  -0.004157  -0.082058  -0.001122   0.927660  -0.044362
    12  H   -0.003759  -0.000013   0.000154  -0.046618  -0.044362   0.619734
    13  H   -0.003617  -0.001239  -0.000046  -0.045078  -0.001348   0.001396
    14  H    0.046669  -0.016318  -0.001056   0.000412   0.002402  -0.000385
    15  H    0.069831  -0.106440   0.135534  -0.000007   0.005105   0.000020
              13         14         15
     1  C    0.020653  -0.268454   0.026914
     2  C    0.030774   0.022208  -0.009736
     3  C    0.009938   0.023903   0.001925
     4  C   -0.201426   0.052818   0.000727
     5  C    0.510625  -0.274830  -0.001030
     6  C   -0.195167   0.422364  -0.018342
     7  C   -0.003617   0.046669   0.069831
     8  O   -0.001239  -0.016318  -0.106440
     9  O   -0.000046  -0.001056   0.135534
    10  Cl  -0.045078   0.000412  -0.000007
    11  H   -0.001348   0.002402   0.005105
    12  H    0.001396  -0.000385   0.000020
    13  H    0.606795  -0.038036  -0.000058
    14  H   -0.038036   0.854878   0.000527
    15  H   -0.000058   0.000527   0.590488
 Mulliken charges:
               1
     1  C    1.791681
     2  C   -0.481051
     3  C   -0.639203
     4  C    0.705809
     5  C   -0.546621
     6  C   -0.762451
     7  C    0.352898
     8  O   -0.895243
     9  O   -0.536800
    10  Cl  -0.286765
    11  H    0.210663
    12  H    0.303812
    13  H    0.305832
    14  H    0.172899
    15  H    0.304543
 Sum of Mulliken charges =   0.00000
 Mulliken charges with hydrogens summed into heavy atoms:
               1
     1  C    1.791681
     2  C   -0.270389
     3  C   -0.335392
     4  C    0.705809
     5  C   -0.240789
     6  C   -0.589553
     7  C    0.352898
     8  O   -0.895243
     9  O   -0.232257
    10  Cl  -0.286765
 Electronic spatial extent (au):  <R**2>=           2044.6187
 Charge=              0.0000 electrons
 Dipole moment (field-independent basis, Debye):
    X=             -0.0926    Y=             -1.4973    Z=              0.0000  Tot=              1.5001
 Quadrupole moment (field-independent basis, Debye-Ang):
   XX=            -64.3868   YY=            -60.7941   ZZ=            -66.1134
   XY=              7.4006   XZ=              0.0000   YZ=              0.0001
 Traceless Quadrupole moment (field-independent basis, Debye-Ang):
   XX=             -0.6220   YY=              2.9707   ZZ=             -2.3486
   XY=              7.4006   XZ=              0.0000   YZ=              0.0001
 Octapole moment (field-independent basis, Debye-Ang**2):
  XXX=            -42.6251  YYY=             -2.1132  ZZZ=              0.0000  XYY=              8.8624
  XXY=            -32.4509  XXZ=              0.0001  XZZ=             -5.4558  YZZ=             -0.0808
  YYZ=              0.0001  XYZ=             -0.0001
 Hexadecapole moment (field-independent basis, Debye-Ang**3):
 XXXX=          -1898.8313 YYYY=           -376.1032 ZZZZ=            -71.1661 XXXY=            145.3526
 XXXZ=              0.0001 YYYX=             11.6275 YYYZ=              0.0002 ZZZX=              0.0001
 ZZZY=             -0.0001 XXYY=           -435.0281 XXZZ=           -365.7998 YYZZ=            -86.0125
 XXYZ=              0.0006 YYXZ=              0.0000 ZZXY=              0.4071
 N-N= 5.481641293142D+02 E-N=-3.171021179820D+03  KE= 8.773510660824D+02
 ******************************Gaussian NBO Version 3.1******************************
             N A T U R A L   A T O M I C   O R B I T A L   A N D
          N A T U R A L   B O N D   O R B I T A L   A N A L Y S I S
 ******************************Gaussian NBO Version 3.1******************************
       /RESON  / : Allow strongly delocalized NBO set

 Analyzing the SCF density

 Job title: CYH-213-A_eq00000                                               

 Storage needed:   1008201 in NPA,   1342976 in NBO (********** available)
 GSVD:  LWork=       38799 too small for GESVD, short by      550638 words or      550638 for optimal perf.


 NATURAL POPULATIONS:  Natural atomic orbital occupancies 
                                                          
   NAO  Atom  No  lang   Type(AO)    Occupancy      Energy
 ----------------------------------------------------------
     1    C    1  S      Cor( 1S)     1.99900     -10.42343
     2    C    1  S      Val( 2S)     0.93244      -0.19683
     3    C    1  S      Ryd( 3S)     0.00131       1.79179
     4    C    1  S      Ryd( 4S)     0.00010       2.35791
     5    C    1  S      Ryd( 5S)     0.00003       3.66727
     6    C    1  px     Val( 2p)     1.06095      -0.10523
     7    C    1  px     Ryd( 4p)     0.00581       2.15802
     8    C    1  px     Ryd( 5p)     0.00005       2.56894
     9    C    1  px     Ryd( 3p)     0.00005       1.12058
    10    C    1  py     Val( 2p)     1.09652      -0.09955
    11    C    1  py     Ryd( 4p)     0.00550       1.96659
    12    C    1  py     Ryd( 5p)     0.00009       2.21976
    13    C    1  py     Ryd( 3p)     0.00002       1.07019
    14    C    1  pz     Val( 2p)     1.06697      -0.14409
    15    C    1  pz     Ryd( 4p)     0.00097       0.87415
    16    C    1  pz     Ryd( 5p)     0.00010       2.00202
    17    C    1  pz     Ryd( 3p)     0.00001       0.58844
    18    C    1  dxy    Ryd( 3d)     0.00061       2.71819
    19    C    1  dxy    Ryd( 4d)     0.00035       3.60607
    20    C    1  dxy    Ryd( 5d)     0.00008       4.94230
    21    C    1  dxz    Ryd( 3d)     0.00012       1.52858
    22    C    1  dxz    Ryd( 5d)     0.00011       2.83511
    23    C    1  dxz    Ryd( 4d)     0.00003       2.19657
    24    C    1  dyz    Ryd( 3d)     0.00044       1.39818
    25    C    1  dyz    Ryd( 5d)     0.00005       2.78455
    26    C    1  dyz    Ryd( 4d)     0.00002       2.44010
    27    C    1  dx2y2  Ryd( 3d)     0.00201       3.23685
    28    C    1  dx2y2  Ryd( 4d)     0.00019       3.85532
    29    C    1  dx2y2  Ryd( 5d)     0.00002       4.06773
    30    C    1  dz2    Ryd( 3d)     0.00090       1.72061
    31    C    1  dz2    Ryd( 4d)     0.00016       3.60923
    32    C    1  dz2    Ryd( 5d)     0.00004       4.06761
    33    C    1  f(0)   Ryd( 4f)     0.00052       1.41508
    34    C    1  f(0)   Ryd( 5f)     0.00016       3.53750
    35    C    1  f(C1)  Ryd( 4f)     0.00020       1.91047
    36    C    1  f(C1)  Ryd( 5f)     0.00041       3.65909
    37    C    1  f(S1)  Ryd( 4f)     0.00057       1.81554
    38    C    1  f(S1)  Ryd( 5f)     0.00027       3.69923
    39    C    1  f(C2)  Ryd( 4f)     0.00054       1.37535
    40    C    1  f(C2)  Ryd( 5f)     0.00003       3.56100
    41    C    1  f(S2)  Ryd( 4f)     0.00060       1.32563
    42    C    1  f(S2)  Ryd( 5f)     0.00002       3.59162
    43    C    1  f(C3)  Ryd( 4f)     0.00078       3.11380
    44    C    1  f(C3)  Ryd( 5f)     0.00012       4.18813
    45    C    1  f(S3)  Ryd( 4f)     0.00188       2.30713
    46    C    1  f(S3)  Ryd( 5f)     0.00019       4.53283
 
    47    C    2  S      Cor( 1S)     1.99920     -10.41512
    48    C    2  S      Val( 2S)     0.96286      -0.22213
    49    C    2  S      Ryd( 3S)     0.00101       1.79885
    50    C    2  S      Ryd( 5S)     0.00008       2.71416
    51    C    2  S      Ryd( 4S)     0.00002       2.19550
    52    C    2  px     Val( 2p)     1.07669      -0.07946
    53    C    2  px     Ryd( 4p)     0.00334       1.84572
    54    C    2  px     Ryd( 5p)     0.00012       2.44713
    55    C    2  px     Ryd( 3p)     0.00006       1.16369
    56    C    2  py     Val( 2p)     1.14048      -0.08697
    57    C    2  py     Ryd( 4p)     0.00424       1.66807
    58    C    2  py     Ryd( 5p)     0.00006       2.46265
    59    C    2  py     Ryd( 3p)     0.00004       1.22882
    60    C    2  pz     Val( 2p)     0.94895      -0.13456
    61    C    2  pz     Ryd( 4p)     0.00057       0.96627
    62    C    2  pz     Ryd( 5p)     0.00004       1.72189
    63    C    2  pz     Ryd( 3p)     0.00004       0.64056
    64    C    2  dxy    Ryd( 3d)     0.00167       2.63072
    65    C    2  dxy    Ryd( 4d)     0.00010       3.53901
    66    C    2  dxy    Ryd( 5d)     0.00005       3.75595
    67    C    2  dxz    Ryd( 3d)     0.00045       1.49732
    68    C    2  dxz    Ryd( 5d)     0.00007       2.70642
    69    C    2  dxz    Ryd( 4d)     0.00002       2.29817
    70    C    2  dyz    Ryd( 3d)     0.00022       1.39308
    71    C    2  dyz    Ryd( 5d)     0.00008       2.78065
    72    C    2  dyz    Ryd( 4d)     0.00002       1.96357
    73    C    2  dx2y2  Ryd( 4d)     0.00170       3.39413
    74    C    2  dx2y2  Ryd( 5d)     0.00019       3.80528
    75    C    2  dx2y2  Ryd( 3d)     0.00009       2.85382
    76    C    2  dz2    Ryd( 3d)     0.00087       1.81289
    77    C    2  dz2    Ryd( 4d)     0.00011       3.65306
    78    C    2  dz2    Ryd( 5d)     0.00006       4.09557
    79    C    2  f(0)   Ryd( 4f)     0.00011       1.45850
    80    C    2  f(0)   Ryd( 5f)     0.00009       3.42071
    81    C    2  f(C1)  Ryd( 4f)     0.00037       2.02171
    82    C    2  f(C1)  Ryd( 5f)     0.00022       3.63506
    83    C    2  f(S1)  Ryd( 4f)     0.00046       1.85948
    84    C    2  f(S1)  Ryd( 5f)     0.00015       3.51966
    85    C    2  f(C2)  Ryd( 4f)     0.00025       1.48805
    86    C    2  f(C2)  Ryd( 5f)     0.00002       3.45576
    87    C    2  f(S2)  Ryd( 4f)     0.00017       1.50606
    88    C    2  f(S2)  Ryd( 5f)     0.00004       3.43227
    89    C    2  f(C3)  Ryd( 4f)     0.00035       3.37279
    90    C    2  f(C3)  Ryd( 5f)     0.00015       4.02615
    91    C    2  f(S3)  Ryd( 4f)     0.00087       1.88999
    92    C    2  f(S3)  Ryd( 5f)     0.00026       4.31898
 
    93    C    3  S      Cor( 1S)     1.99912     -10.41079
    94    C    3  S      Val( 2S)     0.96492      -0.22433
    95    C    3  S      Ryd( 3S)     0.00142       1.70579
    96    C    3  S      Ryd( 5S)     0.00010       2.45299
    97    C    3  S      Ryd( 4S)     0.00001       2.28761
    98    C    3  px     Val( 2p)     1.08941      -0.09213
    99    C    3  px     Ryd( 4p)     0.00482       1.70804
   100    C    3  px     Ryd( 5p)     0.00012       1.71328
   101    C    3  px     Ryd( 3p)     0.00002       1.45854
   102    C    3  py     Val( 2p)     1.15275      -0.10608
   103    C    3  py     Ryd( 3p)     0.00411       1.57447
   104    C    3  py     Ryd( 5p)     0.00008       1.88890
   105    C    3  py     Ryd( 4p)     0.00004       1.59358
   106    C    3  pz     Val( 2p)     1.00625      -0.13982
   107    C    3  pz     Ryd( 3p)     0.00092       0.88985
   108    C    3  pz     Ryd( 5p)     0.00000       1.32687
   109    C    3  pz     Ryd( 4p)     0.00005       1.03331
   110    C    3  dxy    Ryd( 3d)     0.00214       2.26899
   111    C    3  dxy    Ryd( 5d)     0.00019       3.75436
   112    C    3  dxy    Ryd( 4d)     0.00008       2.88660
   113    C    3  dxz    Ryd( 3d)     0.00016       1.23783
   114    C    3  dxz    Ryd( 5d)     0.00009       2.99005
   115    C    3  dxz    Ryd( 4d)     0.00004       1.83595
   116    C    3  dyz    Ryd( 3d)     0.00012       1.16504
   117    C    3  dyz    Ryd( 5d)     0.00014       3.05580
   118    C    3  dyz    Ryd( 4d)     0.00002       1.63019
   119    C    3  dx2y2  Ryd( 4d)     0.00186       2.92745
   120    C    3  dx2y2  Ryd( 5d)     0.00024       3.90717
   121    C    3  dx2y2  Ryd( 3d)     0.00005       2.11281
   122    C    3  dz2    Ryd( 3d)     0.00077       1.46664
   123    C    3  dz2    Ryd( 5d)     0.00008       4.03564
   124    C    3  dz2    Ryd( 4d)     0.00007       3.85925
   125    C    3  f(0)   Ryd( 4f)     0.00011       1.57629
   126    C    3  f(0)   Ryd( 5f)     0.00014       3.26601
   127    C    3  f(C1)  Ryd( 4f)     0.00042       2.06945
   128    C    3  f(C1)  Ryd( 5f)     0.00020       3.38870
   129    C    3  f(S1)  Ryd( 4f)     0.00060       1.96263
   130    C    3  f(S1)  Ryd( 5f)     0.00015       3.36401
   131    C    3  f(C2)  Ryd( 4f)     0.00026       1.64166
   132    C    3  f(C2)  Ryd( 5f)     0.00003       3.24931
   133    C    3  f(S2)  Ryd( 4f)     0.00009       1.65752
   134    C    3  f(S2)  Ryd( 5f)     0.00003       3.23732
   135    C    3  f(C3)  Ryd( 4f)     0.00039       3.21883
   136    C    3  f(C3)  Ryd( 5f)     0.00018       3.93010
   137    C    3  f(S3)  Ryd( 4f)     0.00083       1.94455
   138    C    3  f(S3)  Ryd( 5f)     0.00031       3.92613
 
   139    C    4  S      Cor( 1S)     1.99873     -10.48775
   140    C    4  S      Val( 2S)     0.95177      -0.27191
   141    C    4  S      Ryd( 3S)     0.00099       1.41847
   142    C    4  S      Ryd( 5S)     0.00013       3.18069
   143    C    4  S      Ryd( 4S)     0.00001       2.42623
   144    C    4  px     Val( 2p)     0.91945      -0.16879
   145    C    4  px     Ryd( 4p)     0.00681       1.35858
   146    C    4  px     Ryd( 5p)     0.00036       3.38210
   147    C    4  px     Ryd( 3p)     0.00006       1.01105
   148    C    4  py     Val( 2p)     1.08388      -0.10872
   149    C    4  py     Ryd( 4p)     0.00482       1.40190
   150    C    4  py     Ryd( 5p)     0.00003       2.38728
   151    C    4  py     Ryd( 3p)     0.00004       0.97501
   152    C    4  pz     Val( 2p)     1.03429      -0.16935
   153    C    4  pz     Ryd( 4p)     0.00102       0.73258
   154    C    4  pz     Ryd( 5p)     0.00018       2.09448
   155    C    4  pz     Ryd( 3p)     0.00004       0.62333
   156    C    4  dxy    Ryd( 4d)     0.00265       3.18638
   157    C    4  dxy    Ryd( 5d)     0.00021       4.24489
   158    C    4  dxy    Ryd( 3d)     0.00004       1.96834
   159    C    4  dxz    Ryd( 4d)     0.00176       1.35123
   160    C    4  dxz    Ryd( 5d)     0.00010       3.24371
   161    C    4  dxz    Ryd( 3d)     0.00002       1.26465
   162    C    4  dyz    Ryd( 3d)     0.00084       1.43635
   163    C    4  dyz    Ryd( 5d)     0.00001       3.29912
   164    C    4  dyz    Ryd( 4d)     0.00001       1.43948
   165    C    4  dx2y2  Ryd( 3d)     0.00093       2.44189
   166    C    4  dx2y2  Ryd( 5d)     0.00014       3.92906
   167    C    4  dx2y2  Ryd( 4d)     0.00008       2.79166
   168    C    4  dz2    Ryd( 3d)     0.00113       1.87979
   169    C    4  dz2    Ryd( 5d)     0.00012       3.99411
   170    C    4  dz2    Ryd( 4d)     0.00011       3.31567
   171    C    4  f(0)   Ryd( 4f)     0.00121       1.29677
   172    C    4  f(0)   Ryd( 5f)     0.00004       3.38948
   173    C    4  f(C1)  Ryd( 4f)     0.00069       1.56709
   174    C    4  f(C1)  Ryd( 5f)     0.00019       3.41462
   175    C    4  f(S1)  Ryd( 4f)     0.00092       1.68786
   176    C    4  f(S1)  Ryd( 5f)     0.00017       3.51132
   177    C    4  f(C2)  Ryd( 4f)     0.00086       1.36845
   178    C    4  f(C2)  Ryd( 5f)     0.00012       3.42832
   179    C    4  f(S2)  Ryd( 4f)     0.00020       1.20620
   180    C    4  f(S2)  Ryd( 5f)     0.00003       3.42805
   181    C    4  f(C3)  Ryd( 4f)     0.00097       1.98454
   182    C    4  f(C3)  Ryd( 5f)     0.00012       3.87950
   183    C    4  f(S3)  Ryd( 4f)     0.00206       1.73881
   184    C    4  f(S3)  Ryd( 5f)     0.00030       4.08998
 
   185    C    5  S      Cor( 1S)     1.99912     -10.41038
   186    C    5  S      Val( 2S)     0.96572      -0.22433
   187    C    5  S      Ryd( 3S)     0.00131       1.66297
   188    C    5  S      Ryd( 5S)     0.00009       2.59766
   189    C    5  S      Ryd( 4S)     0.00001       2.14915
   190    C    5  px     Val( 2p)     1.09350      -0.09205
   191    C    5  px     Ryd( 4p)     0.00470       1.62966
   192    C    5  px     Ryd( 3p)     0.00009       1.14799
   193    C    5  px     Ryd( 5p)     0.00003       1.80665
   194    C    5  py     Val( 2p)     1.14934      -0.10560
   195    C    5  py     Ryd( 4p)     0.00378       1.55332
   196    C    5  py     Ryd( 3p)     0.00006       1.36049
   197    C    5  py     Ryd( 5p)     0.00005       2.00016
   198    C    5  pz     Val( 2p)     1.00419      -0.13980
   199    C    5  pz     Ryd( 4p)     0.00089       0.90891
   200    C    5  pz     Ryd( 3p)     0.00003       0.89832
   201    C    5  pz     Ryd( 5p)     0.00003       1.50063
   202    C    5  dxy    Ryd( 3d)     0.00195       2.35406
   203    C    5  dxy    Ryd( 5d)     0.00023       3.54804
   204    C    5  dxy    Ryd( 4d)     0.00008       2.81297
   205    C    5  dxz    Ryd( 3d)     0.00024       1.41728
   206    C    5  dxz    Ryd( 5d)     0.00003       2.76387
   207    C    5  dxz    Ryd( 4d)     0.00004       1.93248
   208    C    5  dyz    Ryd( 3d)     0.00014       1.37611
   209    C    5  dyz    Ryd( 5d)     0.00010       2.82956
   210    C    5  dyz    Ryd( 4d)     0.00001       1.66910
   211    C    5  dx2y2  Ryd( 4d)     0.00156       3.12351
   212    C    5  dx2y2  Ryd( 5d)     0.00026       3.79008
   213    C    5  dx2y2  Ryd( 3d)     0.00006       2.14677
   214    C    5  dz2    Ryd( 3d)     0.00076       1.59606
   215    C    5  dz2    Ryd( 5d)     0.00008       3.76126
   216    C    5  dz2    Ryd( 4d)     0.00008       3.52346
   217    C    5  f(0)   Ryd( 5f)     0.00014       3.35795
   218    C    5  f(0)   Ryd( 4f)     0.00001       2.31911
   219    C    5  f(C1)  Ryd( 5f)     0.00023       3.66716
   220    C    5  f(C1)  Ryd( 4f)     0.00002       2.94495
   221    C    5  f(S1)  Ryd( 5f)     0.00021       3.60956
   222    C    5  f(S1)  Ryd( 4f)     0.00003       2.97542
   223    C    5  f(C2)  Ryd( 5f)     0.00001       3.45511
   224    C    5  f(C2)  Ryd( 4f)     0.00001       2.53288
   225    C    5  f(S2)  Ryd( 5f)     0.00001       3.53337
   226    C    5  f(S2)  Ryd( 4f)     0.00001       2.41112
   227    C    5  f(C3)  Ryd( 4f)     0.00014       4.08872
   228    C    5  f(C3)  Ryd( 5f)     0.00005       5.87004
   229    C    5  f(S3)  Ryd( 5f)     0.00015       4.10866
   230    C    5  f(S3)  Ryd( 4f)     0.00006       4.01757
 
   231    C    6  S      Cor( 1S)     1.99920     -10.41330
   232    C    6  S      Val( 2S)     0.96474      -0.22321
   233    C    6  S      Ryd( 3S)     0.00111       1.77826
   234    C    6  S      Ryd( 5S)     0.00009       2.83232
   235    C    6  S      Ryd( 4S)     0.00002       1.91090
   236    C    6  px     Val( 2p)     1.07192      -0.07520
   237    C    6  px     Ryd( 4p)     0.00346       1.84616
   238    C    6  px     Ryd( 3p)     0.00009       1.27685
   239    C    6  px     Ryd( 5p)     0.00007       2.16105
   240    C    6  py     Val( 2p)     1.14564      -0.08675
   241    C    6  py     Ryd( 4p)     0.00451       1.65414
   242    C    6  py     Ryd( 3p)     0.00006       1.56265
   243    C    6  py     Ryd( 5p)     0.00004       1.96877
   244    C    6  pz     Val( 2p)     0.93741      -0.13123
   245    C    6  pz     Ryd( 4p)     0.00055       0.99202
   246    C    6  pz     Ryd( 3p)     0.00003       0.94564
   247    C    6  pz     Ryd( 5p)     0.00005       1.34827
   248    C    6  dxy    Ryd( 3d)     0.00175       2.59568
   249    C    6  dxy    Ryd( 5d)     0.00013       3.91610
   250    C    6  dxy    Ryd( 4d)     0.00008       3.13056
   251    C    6  dxz    Ryd( 3d)     0.00046       1.45543
   252    C    6  dxz    Ryd( 5d)     0.00002       3.07417
   253    C    6  dxz    Ryd( 4d)     0.00002       1.87391
   254    C    6  dyz    Ryd( 3d)     0.00022       1.39346
   255    C    6  dyz    Ryd( 5d)     0.00006       3.12159
   256    C    6  dyz    Ryd( 4d)     0.00003       1.55147
   257    C    6  dx2y2  Ryd( 4d)     0.00174       3.15679
   258    C    6  dx2y2  Ryd( 5d)     0.00020       4.13993
   259    C    6  dx2y2  Ryd( 3d)     0.00008       2.55417
   260    C    6  dz2    Ryd( 3d)     0.00079       1.75919
   261    C    6  dz2    Ryd( 4d)     0.00009       3.68340
   262    C    6  dz2    Ryd( 5d)     0.00005       4.38125
   263    C    6  f(0)   Ryd( 4f)     0.00009       1.41403
   264    C    6  f(0)   Ryd( 5f)     0.00010       3.41074
   265    C    6  f(C1)  Ryd( 4f)     0.00031       1.93971
   266    C    6  f(C1)  Ryd( 5f)     0.00022       3.66390
   267    C    6  f(S1)  Ryd( 4f)     0.00042       1.70569
   268    C    6  f(S1)  Ryd( 5f)     0.00015       3.55434
   269    C    6  f(C2)  Ryd( 4f)     0.00017       1.47775
   270    C    6  f(C2)  Ryd( 5f)     0.00002       3.43120
   271    C    6  f(S2)  Ryd( 4f)     0.00017       1.44061
   272    C    6  f(S2)  Ryd( 5f)     0.00003       3.47176
   273    C    6  f(C3)  Ryd( 4f)     0.00027       2.61576
   274    C    6  f(C3)  Ryd( 5f)     0.00017       3.98005
   275    C    6  f(S3)  Ryd( 4f)     0.00103       1.84166
   276    C    6  f(S3)  Ryd( 5f)     0.00019       4.22270
 
   277    C    7  S      Cor( 1S)     1.99938     -10.56671
   278    C    7  S      Val( 2S)     0.78993      -0.15049
   279    C    7  S      Ryd( 4S)     0.00427       1.87441
   280    C    7  S      Ryd( 3S)     0.00016       1.64039
   281    C    7  S      Ryd( 5S)     0.00007       2.34623
   282    C    7  px     Val( 2p)     0.91458      -0.06752
   283    C    7  px     Ryd( 5p)     0.00588       1.54243
   284    C    7  px     Ryd( 3p)     0.00023       1.05666
   285    C    7  px     Ryd( 4p)     0.00001       1.42042
   286    C    7  py     Val( 2p)     0.71940      -0.01917
   287    C    7  py     Ryd( 4p)     0.01389       1.57263
   288    C    7  py     Ryd( 3p)     0.00007       1.18930
   289    C    7  py     Ryd( 5p)     0.00005       1.72351
   290    C    7  pz     Val( 2p)     0.74032      -0.13111
   291    C    7  pz     Ryd( 5p)     0.00041       1.11151
   292    C    7  pz     Ryd( 3p)     0.00007       0.69881
   293    C    7  pz     Ryd( 4p)     0.00002       1.00971
   294    C    7  dxy    Ryd( 4d)     0.00055       3.19457
   295    C    7  dxy    Ryd( 3d)     0.00034       2.38596
   296    C    7  dxy    Ryd( 5d)     0.00008       3.86827
   297    C    7  dxz    Ryd( 4d)     0.00099       2.45217
   298    C    7  dxz    Ryd( 3d)     0.00011       1.55075
   299    C    7  dxz    Ryd( 5d)     0.00005       2.54347
   300    C    7  dyz    Ryd( 4d)     0.00159       2.60637
   301    C    7  dyz    Ryd( 3d)     0.00006       1.70257
   302    C    7  dyz    Ryd( 5d)     0.00005       2.71767
   303    C    7  dx2y2  Ryd( 4d)     0.00219       3.21740
   304    C    7  dx2y2  Ryd( 3d)     0.00014       1.99653
   305    C    7  dx2y2  Ryd( 5d)     0.00007       3.76223
   306    C    7  dz2    Ryd( 5d)     0.00025       3.43576
   307    C    7  dz2    Ryd( 3d)     0.00054       2.12896
   308    C    7  dz2    Ryd( 4d)     0.00009       3.32243
   309    C    7  f(0)   Ryd( 5f)     0.00009       3.37584
   310    C    7  f(0)   Ryd( 4f)     0.00002       2.48029
   311    C    7  f(C1)  Ryd( 5f)     0.00011       3.55514
   312    C    7  f(C1)  Ryd( 4f)     0.00001       3.08712
   313    C    7  f(S1)  Ryd( 5f)     0.00006       3.59097
   314    C    7  f(S1)  Ryd( 4f)     0.00004       3.36902
   315    C    7  f(C2)  Ryd( 5f)     0.00001       3.30670
   316    C    7  f(C2)  Ryd( 4f)     0.00005       2.65508
   317    C    7  f(S2)  Ryd( 5f)     0.00002       3.49089
   318    C    7  f(S2)  Ryd( 4f)     0.00000       2.85668
   319    C    7  f(C3)  Ryd( 4f)     0.00007       4.55078
   320    C    7  f(C3)  Ryd( 5f)     0.00003       8.36592
   321    C    7  f(S3)  Ryd( 5f)     0.00009       4.37781
   322    C    7  f(S3)  Ryd( 4f)     0.00003       4.10722
 
   323    O    8  S      Cor( 1S)     1.99977     -19.33670
   324    O    8  S      Val( 2S)     1.70217      -1.01300
   325    O    8  S      Ryd( 4S)     0.00061       2.89174
   326    O    8  S      Ryd( 3S)     0.00019       1.79270
   327    O    8  S      Ryd( 5S)     0.00001       8.39021
   328    O    8  px     Val( 2p)     1.76698      -0.35053
   329    O    8  px     Ryd( 4p)     0.00152       1.34798
   330    O    8  px     Ryd( 3p)     0.00010       0.80459
   331    O    8  px     Ryd( 5p)     0.00003       4.70970
   332    O    8  py     Val( 2p)     1.64126      -0.35297
   333    O    8  py     Ryd( 4p)     0.00130       1.45874
   334    O    8  py     Ryd( 3p)     0.00009       0.74012
   335    O    8  py     Ryd( 5p)     0.00006       5.23829
   336    O    8  pz     Val( 2p)     1.46051      -0.30015
   337    O    8  pz     Ryd( 4p)     0.00057       1.01115
   338    O    8  pz     Ryd( 3p)     0.00002       0.56154
   339    O    8  pz     Ryd( 5p)     0.00001       4.15964
   340    O    8  dxy    Ryd( 3d)     0.00817       2.02754
   341    O    8  dxy    Ryd( 4d)     0.00010       3.35969
   342    O    8  dxy    Ryd( 5d)     0.00003       6.42908
   343    O    8  dxz    Ryd( 3d)     0.00212       1.43043
   344    O    8  dxz    Ryd( 4d)     0.00001       1.83118
   345    O    8  dxz    Ryd( 5d)     0.00001       6.28250
   346    O    8  dyz    Ryd( 3d)     0.00506       1.51913
   347    O    8  dyz    Ryd( 4d)     0.00003       1.88485
   348    O    8  dyz    Ryd( 5d)     0.00002       6.23173
   349    O    8  dx2y2  Ryd( 3d)     0.00633       1.79770
   350    O    8  dx2y2  Ryd( 4d)     0.00007       2.37520
   351    O    8  dx2y2  Ryd( 5d)     0.00004       6.34687
   352    O    8  dz2    Ryd( 3d)     0.00282       1.61818
   353    O    8  dz2    Ryd( 4d)     0.00009       2.58591
   354    O    8  dz2    Ryd( 5d)     0.00001       6.36183
   355    O    8  f(0)   Ryd( 4f)     0.00015       3.11461
   356    O    8  f(0)   Ryd( 5f)     0.00001       5.47136
   357    O    8  f(C1)  Ryd( 4f)     0.00007       3.28430
   358    O    8  f(C1)  Ryd( 5f)     0.00001       5.58138
   359    O    8  f(S1)  Ryd( 4f)     0.00010       3.54142
   360    O    8  f(S1)  Ryd( 5f)     0.00001       5.72894
   361    O    8  f(C2)  Ryd( 4f)     0.00008       3.07229
   362    O    8  f(C2)  Ryd( 5f)     0.00001       5.69173
   363    O    8  f(S2)  Ryd( 4f)     0.00030       3.16593
   364    O    8  f(S2)  Ryd( 5f)     0.00001       5.58729
   365    O    8  f(C3)  Ryd( 4f)     0.00037       4.08671
   366    O    8  f(C3)  Ryd( 5f)     0.00001       6.02316
   367    O    8  f(S3)  Ryd( 4f)     0.00049       3.58666
   368    O    8  f(S3)  Ryd( 5f)     0.00002       5.91788
 
   369    O    9  S      Cor( 1S)     1.99978     -19.46652
   370    O    9  S      Val( 2S)     1.67431      -1.04729
   371    O    9  S      Ryd( 3S)     0.00059       1.72399
   372    O    9  S      Ryd( 4S)     0.00005       2.63483
   373    O    9  S      Ryd( 5S)     0.00001       9.20491
   374    O    9  px     Val( 2p)     1.51528      -0.37889
   375    O    9  px     Ryd( 3p)     0.00070       1.18797
   376    O    9  px     Ryd( 4p)     0.00010       1.61438
   377    O    9  px     Ryd( 5p)     0.00003       4.47841
   378    O    9  py     Val( 2p)     1.65201      -0.41370
   379    O    9  py     Ryd( 3p)     0.00084       1.07482
   380    O    9  py     Ryd( 4p)     0.00009       1.32537
   381    O    9  py     Ryd( 5p)     0.00009       4.36494
   382    O    9  pz     Val( 2p)     1.83746      -0.42403
   383    O    9  pz     Ryd( 3p)     0.00110       0.84736
   384    O    9  pz     Ryd( 4p)     0.00001       1.00137
   385    O    9  pz     Ryd( 5p)     0.00001       3.66605
   386    O    9  dxy    Ryd( 3d)     0.00478       1.83303
   387    O    9  dxy    Ryd( 4d)     0.00013       2.59502
   388    O    9  dxy    Ryd( 5d)     0.00004       6.67569
   389    O    9  dxz    Ryd( 3d)     0.00068       1.17838
   390    O    9  dxz    Ryd( 4d)     0.00006       1.96268
   391    O    9  dxz    Ryd( 5d)     0.00001       6.39364
   392    O    9  dyz    Ryd( 3d)     0.00443       1.33314
   393    O    9  dyz    Ryd( 4d)     0.00002       1.74768
   394    O    9  dyz    Ryd( 5d)     0.00004       6.42109
   395    O    9  dx2y2  Ryd( 3d)     0.00563       1.93011
   396    O    9  dx2y2  Ryd( 4d)     0.00006       2.18449
   397    O    9  dx2y2  Ryd( 5d)     0.00006       6.90334
   398    O    9  dz2    Ryd( 3d)     0.00301       1.51493
   399    O    9  dz2    Ryd( 4d)     0.00015       2.43393
   400    O    9  dz2    Ryd( 5d)     0.00001       6.65421
   401    O    9  f(0)   Ryd( 4f)     0.00055       2.76629
   402    O    9  f(0)   Ryd( 5f)     0.00001       5.93528
   403    O    9  f(C1)  Ryd( 4f)     0.00022       3.36681
   404    O    9  f(C1)  Ryd( 5f)     0.00001       6.22775
   405    O    9  f(S1)  Ryd( 4f)     0.00018       3.32705
   406    O    9  f(S1)  Ryd( 5f)     0.00001       6.08949
   407    O    9  f(C2)  Ryd( 4f)     0.00002       2.86132
   408    O    9  f(C2)  Ryd( 5f)     0.00001       6.08422
   409    O    9  f(S2)  Ryd( 4f)     0.00011       2.80129
   410    O    9  f(S2)  Ryd( 5f)     0.00001       5.96814
   411    O    9  f(C3)  Ryd( 4f)     0.00015       4.46398
   412    O    9  f(C3)  Ryd( 5f)     0.00006       6.57293
   413    O    9  f(S3)  Ryd( 4f)     0.00005       3.69600
   414    O    9  f(S3)  Ryd( 5f)     0.00001       6.41932
 
   415   Cl   10  S      Cor( 1S)     2.00000    -101.22829
   416   Cl   10  S      Cor( 2S)     1.99974     -10.98676
   417   Cl   10  S      Val( 3S)     1.82040      -1.06891
   418   Cl   10  S      Ryd( 5S)     0.00233       1.66587
   419   Cl   10  S      Ryd( 4S)     0.00004       1.43443
   420   Cl   10  S      Ryd( 6S)     0.00000       5.26042
   421   Cl   10  px     Cor( 2p)     1.99991      -7.54455
   422   Cl   10  px     Val( 3p)     1.25208      -0.30069
   423   Cl   10  px     Ryd( 4p)     0.00209       0.63955
   424   Cl   10  px     Ryd( 5p)     0.00006       0.99229
   425   Cl   10  px     Ryd( 6p)     0.00002       2.42924
   426   Cl   10  py     Cor( 2p)     1.99999      -7.54107
   427   Cl   10  py     Val( 3p)     1.96846      -0.39577
   428   Cl   10  py     Ryd( 4p)     0.00178       0.66171
   429   Cl   10  py     Ryd( 5p)     0.00010       1.34768
   430   Cl   10  py     Ryd( 6p)     0.00003       2.15347
   431   Cl   10  pz     Cor( 2p)     1.99999      -7.54136
   432   Cl   10  pz     Val( 3p)     1.91972      -0.39246
   433   Cl   10  pz     Ryd( 4p)     0.00240       0.60164
   434   Cl   10  pz     Ryd( 5p)     0.00003       0.94392
   435   Cl   10  pz     Ryd( 6p)     0.00001       1.96816
   436   Cl   10  dxy    Ryd( 4d)     0.00055       2.07041
   437   Cl   10  dxy    Ryd( 3d)     0.00021       1.17482
   438   Cl   10  dxy    Ryd( 5d)     0.00002       2.55890
   439   Cl   10  dxz    Ryd( 4d)     0.00161       1.46162
   440   Cl   10  dxz    Ryd( 3d)     0.00022       1.17178
   441   Cl   10  dxz    Ryd( 5d)     0.00001       2.31479
   442   Cl   10  dyz    Ryd( 4d)     0.00001       1.16374
   443   Cl   10  dyz    Ryd( 3d)     0.00001       1.00505
   444   Cl   10  dyz    Ryd( 5d)     0.00001       1.86014
   445   Cl   10  dx2y2  Ryd( 4d)     0.00326       1.80208
   446   Cl   10  dx2y2  Ryd( 3d)     0.00003       1.36623
   447   Cl   10  dx2y2  Ryd( 5d)     0.00003       2.40801
   448   Cl   10  dz2    Ryd( 3d)     0.00109       1.40017
   449   Cl   10  dz2    Ryd( 4d)     0.00003       1.43176
   450   Cl   10  dz2    Ryd( 5d)     0.00001       2.24421
   451   Cl   10  f(0)   Ryd( 4f)     0.00006       1.23444
   452   Cl   10  f(0)   Ryd( 5f)     0.00003       2.83214
   453   Cl   10  f(C1)  Ryd( 4f)     0.00002       1.70493
   454   Cl   10  f(C1)  Ryd( 5f)     0.00007       2.93397
   455   Cl   10  f(S1)  Ryd( 4f)     0.00003       1.30906
   456   Cl   10  f(S1)  Ryd( 5f)     0.00001       2.83802
   457   Cl   10  f(C2)  Ryd( 4f)     0.00009       1.26995
   458   Cl   10  f(C2)  Ryd( 5f)     0.00006       2.84715
   459   Cl   10  f(S2)  Ryd( 4f)     0.00000       1.40062
   460   Cl   10  f(S2)  Ryd( 5f)     0.00000       2.83056
   461   Cl   10  f(C3)  Ryd( 4f)     0.00005       1.70147
   462   Cl   10  f(C3)  Ryd( 5f)     0.00010       2.98155
   463   Cl   10  f(S3)  Ryd( 4f)     0.00012       1.37931
   464   Cl   10  f(S3)  Ryd( 5f)     0.00007       2.99484
 
   465    H   11  S      Val( 1S)     0.76508       0.05363
   466    H   11  S      Ryd( 4S)     0.00045       1.93305
   467    H   11  S      Ryd( 2S)     0.00014       0.72147
   468    H   11  S      Ryd( 3S)     0.00004       1.80208
   469    H   11  px     Ryd( 2p)     0.00062       1.01747
   470    H   11  px     Ryd( 4p)     0.00011       4.30605
   471    H   11  px     Ryd( 3p)     0.00007       3.69866
   472    H   11  py     Ryd( 2p)     0.00071       0.89852
   473    H   11  py     Ryd( 4p)     0.00018       4.33788
   474    H   11  py     Ryd( 3p)     0.00005       4.27312
   475    H   11  pz     Ryd( 2p)     0.00020       0.60666
   476    H   11  pz     Ryd( 4p)     0.00003       4.02290
   477    H   11  pz     Ryd( 3p)     0.00004       2.07674
   478    H   11  dxy    Ryd( 3d)     0.00009       2.28210
   479    H   11  dxy    Ryd( 4d)     0.00004       4.60644
   480    H   11  dxz    Ryd( 3d)     0.00003       1.58708
   481    H   11  dxz    Ryd( 4d)     0.00001       3.82631
   482    H   11  dyz    Ryd( 3d)     0.00003       1.59435
   483    H   11  dyz    Ryd( 4d)     0.00002       3.98769
   484    H   11  dx2y2  Ryd( 3d)     0.00003       2.11687
   485    H   11  dx2y2  Ryd( 4d)     0.00003       4.60792
   486    H   11  dz2    Ryd( 3d)     0.00004       2.30115
   487    H   11  dz2    Ryd( 4d)     0.00002       4.28825
 
   488    H   12  S      Val( 1S)     0.77016       0.04246
   489    H   12  S      Ryd( 4S)     0.00042       2.01992
   490    H   12  S      Ryd( 2S)     0.00012       0.67558
   491    H   12  S      Ryd( 3S)     0.00002       1.48957
   492    H   12  px     Ryd( 2p)     0.00086       1.01877
   493    H   12  px     Ryd( 4p)     0.00008       4.17276
   494    H   12  px     Ryd( 3p)     0.00004       3.40408
   495    H   12  py     Ryd( 2p)     0.00056       1.22292
   496    H   12  py     Ryd( 3p)     0.00018       4.21645
   497    H   12  py     Ryd( 4p)     0.00003       4.23243
   498    H   12  pz     Ryd( 2p)     0.00027       0.79042
   499    H   12  pz     Ryd( 4p)     0.00002       3.88328
   500    H   12  pz     Ryd( 3p)     0.00003       1.95927
   501    H   12  dxy    Ryd( 3d)     0.00007       2.35889
   502    H   12  dxy    Ryd( 4d)     0.00005       4.28877
   503    H   12  dxz    Ryd( 3d)     0.00003       1.47405
   504    H   12  dxz    Ryd( 4d)     0.00000       3.81283
   505    H   12  dyz    Ryd( 3d)     0.00001       1.61297
   506    H   12  dyz    Ryd( 4d)     0.00002       3.98704
   507    H   12  dx2y2  Ryd( 3d)     0.00004       2.30837
   508    H   12  dx2y2  Ryd( 4d)     0.00004       4.39474
   509    H   12  dz2    Ryd( 3d)     0.00001       2.26568
   510    H   12  dz2    Ryd( 4d)     0.00004       3.99588
 
   511    H   13  S      Val( 1S)     0.76928       0.04373
   512    H   13  S      Ryd( 4S)     0.00042       1.98886
   513    H   13  S      Ryd( 2S)     0.00013       0.66519
   514    H   13  S      Ryd( 3S)     0.00002       1.46189
   515    H   13  px     Ryd( 2p)     0.00074       1.06469
   516    H   13  px     Ryd( 4p)     0.00009       4.00958
   517    H   13  px     Ryd( 3p)     0.00006       2.86099
   518    H   13  py     Ryd( 2p)     0.00051       1.16097
   519    H   13  py     Ryd( 3p)     0.00018       3.97287
   520    H   13  py     Ryd( 4p)     0.00005       4.12335
   521    H   13  pz     Ryd( 2p)     0.00023       0.81148
   522    H   13  pz     Ryd( 4p)     0.00003       3.72570
   523    H   13  pz     Ryd( 3p)     0.00003       1.61034
   524    H   13  dxy    Ryd( 3d)     0.00010       2.36170
   525    H   13  dxy    Ryd( 4d)     0.00006       4.22026
   526    H   13  dxz    Ryd( 3d)     0.00001       1.46788
   527    H   13  dxz    Ryd( 4d)     0.00001       3.80415
   528    H   13  dyz    Ryd( 3d)     0.00001       1.60792
   529    H   13  dyz    Ryd( 4d)     0.00002       3.96168
   530    H   13  dx2y2  Ryd( 3d)     0.00004       2.26947
   531    H   13  dx2y2  Ryd( 4d)     0.00005       4.31766
   532    H   13  dz2    Ryd( 3d)     0.00002       1.86924
   533    H   13  dz2    Ryd( 4d)     0.00003       3.88931
 
   534    H   14  S      Val( 1S)     0.75952       0.06011
   535    H   14  S      Ryd( 4S)     0.00047       1.97540
   536    H   14  S      Ryd( 2S)     0.00014       0.66592
   537    H   14  S      Ryd( 3S)     0.00004       1.79059
   538    H   14  px     Ryd( 2p)     0.00059       1.04032
   539    H   14  px     Ryd( 4p)     0.00011       4.25084
   540    H   14  px     Ryd( 3p)     0.00008       3.45813
   541    H   14  py     Ryd( 2p)     0.00076       0.92016
   542    H   14  py     Ryd( 3p)     0.00017       4.23319
   543    H   14  py     Ryd( 4p)     0.00006       4.31471
   544    H   14  pz     Ryd( 2p)     0.00015       0.63213
   545    H   14  pz     Ryd( 4p)     0.00003       3.99179
   546    H   14  pz     Ryd( 3p)     0.00003       2.06114
   547    H   14  dxy    Ryd( 3d)     0.00007       2.28450
   548    H   14  dxy    Ryd( 4d)     0.00004       4.44987
   549    H   14  dxz    Ryd( 3d)     0.00003       1.45220
   550    H   14  dxz    Ryd( 4d)     0.00001       3.91127
   551    H   14  dyz    Ryd( 3d)     0.00003       1.49590
   552    H   14  dyz    Ryd( 4d)     0.00001       4.07739
   553    H   14  dx2y2  Ryd( 3d)     0.00003       2.24854
   554    H   14  dx2y2  Ryd( 4d)     0.00004       4.51489
   555    H   14  dz2    Ryd( 3d)     0.00002       2.37300
   556    H   14  dz2    Ryd( 4d)     0.00003       4.11149
 
   557    H   15  S      Val( 1S)     0.49421       0.12273
   558    H   15  S      Ryd( 4S)     0.00102       1.82901
   559    H   15  S      Ryd( 2S)     0.00016       1.03907
   560    H   15  S      Ryd( 3S)     0.00013       1.26511
   561    H   15  px     Ryd( 2p)     0.00028       2.61451
   562    H   15  px     Ryd( 4p)     0.00034       3.83178
   563    H   15  px     Ryd( 3p)     0.00003       3.10028
   564    H   15  py     Ryd( 2p)     0.00023       1.77853
   565    H   15  py     Ryd( 4p)     0.00003       3.07556
   566    H   15  py     Ryd( 3p)     0.00002       2.95752
   567    H   15  pz     Ryd( 2p)     0.00053       1.52490
   568    H   15  pz     Ryd( 4p)     0.00004       2.83352
   569    H   15  pz     Ryd( 3p)     0.00001       2.69915
   570    H   15  dxy    Ryd( 3d)     0.00005       1.25662
   571    H   15  dxy    Ryd( 4d)     0.00001       4.38894
   572    H   15  dxz    Ryd( 3d)     0.00010       1.11449
   573    H   15  dxz    Ryd( 4d)     0.00000       4.26508
   574    H   15  dyz    Ryd( 3d)     0.00005       1.13117
   575    H   15  dyz    Ryd( 4d)     0.00000       3.79300
   576    H   15  dx2y2  Ryd( 3d)     0.00007       1.85571
   577    H   15  dx2y2  Ryd( 4d)     0.00001       4.65922
   578    H   15  dz2    Ryd( 3d)     0.00011       1.64990
   579    H   15  dz2    Ryd( 4d)     0.00000       4.06219

 WARNING:  1 low occupancy (<1.9990e) core orbital  found on  C    1
           1 low occupancy (<1.9990e) core orbital  found on  C    4

 WARNING:  Population inversion found on atom  C    1
           Population inversion found on atom  C    2
           Population inversion found on atom  C    3
           Population inversion found on atom  C    4
           Population inversion found on atom  C    5
           Population inversion found on atom  C    6
           Population inversion found on atom  C    7
           Population inversion found on atom  O    8
           Population inversion found on atom  O    9
           Population inversion found on atom Cl   10
           Population inversion found on atom  H   11
           Population inversion found on atom  H   12
           Population inversion found on atom  H   13
           Population inversion found on atom  H   14
           Population inversion found on atom  H   15


 Summary of Natural Population Analysis:                  
                                                          
                                       Natural Population 
                Natural  -----------------------------------------------
    Atom  No    Charge         Core      Valence    Rydberg      Total
 -----------------------------------------------------------------------
      C    1   -0.18132      1.99900     4.15688    0.02544     6.18132
      C    2   -0.14702      1.99920     4.12898    0.01885     6.14702
      C    3   -0.23395      1.99912     4.21334    0.02150     6.23395
      C    4   -0.01865      1.99873     3.98939    0.03052     6.01865
      C    5   -0.22962      1.99912     4.21274    0.01776     6.22962
      C    6   -0.13808      1.99920     4.11972    0.01915     6.13808
      C    7    0.80353      1.99938     3.16423    0.03286     5.19647
      O    8   -0.60178      1.99977     6.57093    0.03107     8.60178
      O    9   -0.70296      1.99978     6.67907    0.02412     8.70296
     Cl   10    0.02300      9.99963     6.96066    0.01671    16.97700
      H   11    0.23195      0.00000     0.76508    0.00297     0.76805
      H   12    0.22689      0.00000     0.77016    0.00295     0.77311
      H   13    0.22789      0.00000     0.76928    0.00283     0.77211
      H   14    0.23755      0.00000     0.75952    0.00294     0.76245
      H   15    0.50258      0.00000     0.49421    0.00322     0.49742
 =======================================================================
   * Total *    0.00000     27.99293    51.75418    0.25290    80.00000

                                 Natural Population      
 --------------------------------------------------------
   Core                      27.99293 ( 99.9747% of  28)
   Valence                   51.75418 ( 99.5273% of  52)
   Natural Minimal Basis     79.74710 ( 99.6839% of  80)
   Natural Rydberg Basis      0.25290 (  0.3161% of  80)
 --------------------------------------------------------

    Atom  No          Natural Electron Configuration
 ----------------------------------------------------------------------------
      C    1      [core]2S( 0.93)2p( 3.22)4p( 0.01)4f( 0.01)
      C    2      [core]2S( 0.96)2p( 3.17)4p( 0.01)
      C    3      [core]2S( 0.96)2p( 3.25)3p( 0.01)
      C    4      [core]2S( 0.95)2p( 3.04)4p( 0.01)4f( 0.01)
      C    5      [core]2S( 0.97)2p( 3.25)4p( 0.01)
      C    6      [core]2S( 0.96)2p( 3.15)4p( 0.01)
      C    7      [core]2S( 0.79)2p( 2.37)4p( 0.01)4d( 0.01)5p( 0.01)
      O    8      [core]2S( 1.70)2p( 4.87)3d( 0.02)
      O    9      [core]2S( 1.67)2p( 5.00)3d( 0.02)
     Cl   10      [core]3S( 1.82)3p( 5.14)4p( 0.01)4d( 0.01)
      H   11            1S( 0.77)
      H   12            1S( 0.77)
      H   13            1S( 0.77)
      H   14            1S( 0.76)
      H   15            1S( 0.49)


 NATURAL BOND ORBITAL ANALYSIS:

                       Occupancies       Lewis Structure    Low   High
           Occ.    -------------------  -----------------   occ   occ
  Cycle   Thresh.   Lewis   Non-Lewis     CR  BD  3C  LP    (L)   (NL)   Dev
 =============================================================================
   1(1)    1.90    75.99594   4.00406     14  17   0   9     8      6    0.45
   2(2)    1.90    75.99594   4.00406     14  17   0   9     8      6    0.45
   3(1)    1.80    76.34627   3.65373     14  16   0  10     3      4    0.45
   4(2)    1.80    76.34627   3.65373     14  16   0  10     3      4    0.45
   5(1)    1.70    76.34627   3.65373     14  16   0  10     3      4    0.45
   6(2)    1.70    76.34627   3.65373     14  16   0  10     3      4    0.45
   7(1)    1.60    78.19514   1.80486     14  19   0   7     0      4    0.45
   8(2)    1.60    77.61075   2.38925     14  18   0   8     1      4    0.40
   9(3)    1.60    78.19514   1.80486     14  19   0   7     0      4    0.45
  10(4)    1.60    78.18007   1.81993     14  19   0   7     0      4    0.45
  11(5)    1.60    77.61075   2.38925     14  18   0   8     1      4    0.40
  12(6)    1.60    78.19514   1.80486     14  19   0   7     0      4    0.45
  13(7)    1.60    78.18007   1.81993     14  19   0   7     0      4    0.45
  14(8)    1.60    77.61075   2.38925     14  18   0   8     1      4    0.40
  15(9)    1.60    78.19514   1.80486     14  19   0   7     0      4    0.45
  16(1)    1.50    77.70573   2.29427     14  18   0   8     0      5    0.73
  17(2)    1.50    77.70573   2.29427     14  18   0   8     0      5    0.73
  18(1)    1.60    78.19514   1.80486     14  19   0   7     0      4    0.45
 -----------------------------------------------------------------------------

 Structure accepted: RESONANCE keyword permits strongly delocalized structure

 WARNING:  1 low occupancy (<1.9990e) core orbital  found on  C    1
           1 low occupancy (<1.9990e) core orbital  found on  C    4

 --------------------------------------------------------
   Core                     27.99294 ( 99.975% of  28)
   Valence Lewis            50.20220 ( 96.543% of  52)
  ==================       ============================
   Total Lewis              78.19514 ( 97.744% of  80)
  -----------------------------------------------------
   Valence non-Lewis         1.66338 (  2.079% of  80)
   Rydberg non-Lewis         0.14147 (  0.177% of  80)
  ==================       ============================
   Total non-Lewis           1.80486 (  2.256% of  80)
 --------------------------------------------------------


       (Occupancy)   Bond orbital/ Coefficients/ Hybrids
 ---------------------------------------------------------------------------------
     1. (1.97698) BD ( 1) C   1 - C   2  
                ( 51.17%)   0.7153* C   1 s( 35.66%)p 1.80( 64.21%)d 0.00(  0.07%)
                                                  f 0.00(  0.06%)
                                           -0.0001  0.5971 -0.0086  0.0004 -0.0005
                                            0.3636  0.0093  0.0006 -0.0005 -0.7138
                                            0.0153 -0.0044  0.0009  0.0000  0.0000
                                            0.0000  0.0000 -0.0131 -0.0085  0.0013
                                            0.0000  0.0000  0.0000  0.0000  0.0000
                                            0.0000 -0.0099 -0.0034  0.0006 -0.0180
                                           -0.0005  0.0018  0.0000  0.0000 -0.0071
                                           -0.0064  0.0130  0.0108  0.0000  0.0000
                                            0.0000  0.0000 -0.0121 -0.0041 -0.0040
                                            0.0033
                ( 48.83%)   0.6988* C   2 s( 35.07%)p 1.85( 64.77%)d 0.00(  0.11%)
                                                  f 0.00(  0.05%)
                                            0.0001  0.5922 -0.0054  0.0020  0.0013
[...]
 ! D26   D(4,5,6,14)          -180.0            -DE/DX =    0.0                 !
 ! D27   D(13,5,6,1)           180.0            -DE/DX =    0.0                 !
 ! D28   D(13,5,6,14)            0.0            -DE/DX =    0.0                 !
 ! D29   D(1,7,9,15)          -180.0017         -DE/DX =    0.0                 !
 ! D30   D(8,7,9,15)             0.0017         -DE/DX =    0.0                 !
 --------------------------------------------------------------------------------
 GradGradGradGradGradGradGradGradGradGradGradGradGradGradGradGradGradGrad


 ----------------------------------------------------------------------

 Electric dipole moment (input orientation):
 (Debye = 10**-18 statcoulomb cm , SI units = C m)
                  (au)            (Debye)         (10**-30 SI)
   Tot        0.554718D+00      0.140995D+01      0.470310D+01
   x         -0.691635D-01     -0.175796D+00     -0.586393D+00
   y         -0.547829D+00     -0.139244D+01     -0.464469D+01
   z         -0.530257D-01     -0.134778D+00     -0.449570D+00

 Dipole polarizability, Alpha (input orientation).
 (esu units = cm**3 , SI units = C**2 m**2 J**-1)
 Alpha(0;0):
               (au)            (10**-24 esu)      (10**-40 SI)
   iso        0.103992D+03      0.154100D+02      0.171459D+02
   aniso      0.791029D+02      0.117218D+02      0.130423D+02
   xx         0.150274D+03      0.222683D+02      0.247768D+02
   yx        -0.309080D+01     -0.458009D+00     -0.509604D+00
   yy         0.101334D+03      0.150161D+02      0.167077D+02
   zx         0.619115D+01      0.917433D+00      0.102078D+01
   zy         0.344071D+01      0.509861D+00      0.567297D+00
   zz         0.603684D+02      0.894567D+01      0.995340D+01

 ----------------------------------------------------------------------

 Dipole orientation:
     6         -1.30939381          0.10115845          0.08990062
     6          0.19954241          0.00116499          2.23914521
     6          2.80055119         -0.17125285          2.00841197
     6          3.86432297         -0.24179988         -0.38488746
     6          2.38429159         -0.14372163         -2.54739517
     6         -0.21129731          0.02833694         -2.29689513
     6         -4.10443706          0.28643293          0.24619395
     8         -5.49434322          0.37859611         -1.54610898
     8         -4.96631237          0.34367186          2.63936810
    17          7.12030475         -0.45763381         -0.68314857
     1         -0.66250942          0.05833275          4.08854062
     1          4.00181759         -0.25085974          3.65644027
     1          3.26761807         -0.20230027         -4.38636306
     1         -1.42038290          0.10846099         -3.94164653
     1         -6.78580337          0.46432427          2.54373834

 Electric dipole moment (dipole orientation):
 (Debye = 10**-18 statcoulomb cm , SI units = C m)
                  (au)            (Debye)         (10**-30 SI)
   Tot        0.554718D+00      0.140995D+01      0.470310D+01
   x          0.000000D+00      0.000000D+00      0.000000D+00
   y          0.000000D+00      0.000000D+00      0.000000D+00
   z          0.554718D+00      0.140995D+01      0.470310D+01

 Dipole polarizability, Alpha (dipole orientation).
 (esu units = cm**3 , SI units = C**2 m**2 J**-1)
 Alpha(0;0):
               (au)            (10**-24 esu)      (10**-40 SI)
   iso        0.103992D+03      0.154100D+02      0.171459D+02
   aniso      0.791029D+02      0.117218D+02      0.130423D+02
   xx         0.150196D+03      0.222568D+02      0.247641D+02
   yx        -0.600411D+01     -0.889717D+00     -0.989943D+00
   yy         0.600230D+02      0.889449D+01      0.989646D+01
   zx        -0.361811D+01     -0.536149D+00     -0.596546D+00
   zy         0.240463D+00      0.356329D-01      0.396469D-01
   zz         0.101756D+03      0.150787D+02      0.167773D+02

 ----------------------------------------------------------------------
 Unable to Open any file for archive entry.
 1\1\GINC-AE13\Freq\RM062X\Aug-CC-pVTZ\C7H5Cl1O2\AKJ\27-Apr-2023\0\\#N 
 Geom=AllCheck Guess=TCheck SCRF=Check GenChk RM062X/Aug-CC-pVTZ Freq\\
 CYH-213-A_eq00000\\0,1\C,-0.6942109369,0.0431579102,-0.0380740995\C,-0
 .0440422458,-1.1846143299,-0.0994909049\C,1.3363395011,-1.2442723662,-
 0.0063139702\C,2.0525775422,-0.0672351315,0.1480674888\C,1.41845479,1.
 1654654557,0.2110614146\C,0.0396135111,1.214417677,0.1170544333\C,-2.1
 715211899,0.1551647806,-0.1335688025\O,-2.7827710821,1.1881464958,-0.0
 864462581\O,-2.7817895785,-1.0358008069,-0.2815778851\Cl,3.7811819117,
 -0.1369900455,0.2651852533\H,-0.6185193311,-2.0913824787,-0.2200422242
 \H,1.8580958377,-2.1887854538,-0.0520227783\H,2.0034100703,2.065309888
 8,0.3317516085\H,-0.4864629019,2.1577601257,0.1623518506\H,-3.73045589
 78,-0.8597417014,-0.3337351362\\Version=ES64L-G16RevC.01\State=1-A\HF=
 -880.4297578\RMSD=1.328e-09\RMSF=5.768e-05\ZeroPoint=0.1069103\Thermal
 =0.1151741\ETot=-880.3145837\HTot=-880.3136395\GTot=-880.3570426\Dipol
 e=-0.0691635,-0.5478294,-0.0530257\DipoleDeriv=-0.6935252,0.0222114,-0
 .0440265,0.0124533,-0.0776105,-0.0016571,-0.0448892,-0.0009595,-0.0518
 95,0.1956199,0.1001261,0.0276881,-0.1571622,0.0126882,-0.0039936,0.005
 0976,0.0143489,-0.0678407,-0.4270234,-0.159203,-0.0372403,-0.1818606,-
 0.0263732,-0.006443,-0.0392293,-0.0048282,-0.1039036,1.3125081,-0.0507
 598,0.0902692,-0.037451,0.1558513,0.0124263,0.0914375,0.0114775,-0.008
 6068,-0.3804022,0.1999435,-0.0026679,0.1954248,-0.0586875,0.017279,-0.
 0030644,0.0176011,-0.0954807,0.171207,-0.119014,0.006535,0.1490767,0.0
 104758,0.0174266,0.030061,-0.0016852,-0.0649803,2.2647887,0.008131,0.1
 38367,0.0652353,1.651927,0.1203325,0.1433661,0.1162607,0.3542627,-1.18
 4377,0.3765418,-0.0250381,0.3473371,-0.9997606,-0.030545,-0.0275839,-0
 .0284842,-0.374039,-0.9738926,-0.4915479,-0.0869647,-0.522808,-1.00092
 68,-0.0935957,-0.0896941,-0.0913483,-0.3735744,-0.8882308,0.0360753,-0
 .0561992,0.0325564,-0.0813781,0.0000533,-0.0565088,0.0003042,-0.059544
 2,0.0753805,-0.032622,-0.00656,-0.031889,0.0334549,-0.0105042,-0.00649
 58,-0.010556,0.1258307,0.0429956,0.0445062,-0.002511,0.0387208,0.02604
 17,-0.0066292,-0.0030181,-0.0062162,0.1322531,0.0381968,-0.043753,-0.0
 106036,-0.0376297,0.0356172,-0.0112361,-0.0100653,-0.0116731,0.1313176
 ,0.0884104,0.0327119,0.0002088,0.0152825,0.042673,-0.0062027,-0.001321
 1,-0.0049603,0.1252217,0.3583444,0.0766525,0.0087432,0.1127135,0.27600
 77,0.0032891,0.0119078,0.0007186,0.330979\Polar=150.2736188,-3.0907969
 ,101.3336719,6.1911473,3.4407127,60.3683926\Quadrupole=-0.394076,1.954
 8751,-1.560799,5.1419095,0.5415332,0.6837977\PG=C01 [X(C7H5Cl1O2)]\NIm
 ag=0\\0.65695382,-0.00473115,0.71864506,0.03609230,0.05002669,0.151837
 36,-0.16518503,0.04578415,-0.00315130,0.70465451,0.11368511,-0.2909911
 5,-0.01176483,0.03687071,0.72334053,0.00280912,-0.01660585,-0.06587928
 ,0.04329632,0.05358999,0.15055768,-0.02704967,0.08425064,0.00495741,-0
 .34740318,-0.02813588,-0.02281988,0.69704365,0.02715384,0.03438504,0.0
 0432706,0.05155264,-0.13308666,-0.00256741,-0.05036124,0.73371548,-0.0
 0005460,0.00839774,0.00787955,-0.01582481,-0.00824883,-0.06381887,0.03
 590313,0.04927484,0.13833457,0.00340017,-0.00318639,0.00039109,-0.0344
 6234,-0.02286553,-0.00479096,-0.15879175,-0.12481731,-0.01764782,0.530
 21020,-0.00321926,-0.08345891,-0.00702795,-0.09186434,0.04762340,-0.00
 277165,-0.04621933,-0.28407551,-0.02253093,0.00318571,0.65719308,0.000
 38820,-0.00702560,-0.00659739,-0.01084749,0.00214757,0.00400028,-0.010
 74872,-0.02813463,-0.06816802,0.02876990,0.04645038,0.13672555,-0.0343
 7752,-0.07818976,-0.00977412,-0.05670649,0.03670960,-0.00062273,0.0713
 7526,0.02297256,0.00658609,-0.14703895,0.03676879,-0.00263881,0.707679
 43,-0.02151289,0.04350761,0.00171880,0.03509627,-0.02377007,0.00065933
 ,-0.03206805,-0.05481524,-0.00773698,0.11538184,-0.29553664,-0.0120311
 6,0.04714253,0.72370064,-0.00479933,-0.00232188,0.00590486,-0.00076437
 ,0.00077443,-0.00276198,0.00175476,-0.00381289,0.00707194,0.00426169,-
 0.01763594,-0.06600138,0.04520386,0.05532739,0.13975715,-0.17410817,-0
 .05149771,-0.01222026,0.07171459,-0.03269527,0.00177319,-0.06113564,-0
 .03159458,-0.00692442,-0.02643038,0.09694330,0.00630296,-0.35326711,-0
 .03334626,-0.02371898,0.71109160,-0.11977246,-0.27543712,-0.02691310,0
 .02310773,-0.06138723,-0.00431930,-0.03399349,-0.01857870,-0.00379887,
 0.02850475,0.03863670,0.00502705,0.04561185,-0.13335748,-0.00304387,-0
 .04234383,0.72341359,-0.01821312,-0.02204553,-0.06934662,0.00667145,-0
 .00829791,0.00633663,-0.00713496,-0.00362776,-0.00373857,0.00029557,0.
 00990632,0.00540947,-0.01678844,-0.00867320,-0.06359029,0.03674257,0.0
 4787557,0.15042272,-0.20671914,0.00590398,-0.00826159,-0.01765262,0.01
 598489,0.00017292,0.00721982,0.00358091,0.00023412,-0.00559752,0.00015
 169,-0.00032411,0.00626314,-0.00488442,-0.00053499,-0.02963186,-0.0154
 1884,-0.00356527,0.74202395,-0.00540739,-0.09851425,-0.00169528,0.0273
 8171,0.00733720,0.00263118,0.00514603,-0.00583075,-0.00087755,0.000463
 41,-0.00575015,-0.00039577,-0.00741099,-0.00486470,-0.00163618,-0.0234
 2876,0.01316354,-0.00063751,-0.18917216,0.89209082,-0.00925167,-0.0008
 8889,-0.08432853,0.00117318,0.00181809,-0.00015298,0.00037126,-0.00098
 901,0.00828618,-0.00029659,-0.00041799,-0.00092278,-0.00075698,-0.0014
 5606,0.00757344,-0.00426845,-0.00006592,0.00108463,0.02075973,0.045714
 23,0.22321950,-0.03310857,0.04716441,0.00023697,-0.00500747,-0.0071908
 5,-0.00118463,-0.00393615,0.00096892,-0.00006908,0.00232207,0.00175195
 ,0.00031167,-0.00008500,0.00123278,0.00016101,0.00035581,0.00402099,0.
 00036431,-0.29794248,0.28219114,0.00927078,0.30058145,0.02936666,-0.00
 948231,-0.00064049,0.00030501,0.00298399,0.00004177,0.00143679,0.00113
 416,0.00035789,-0.00179162,0.00042789,-0.00009962,0.00244568,0.0007002
 7,0.00030833,-0.00595119,-0.00701893,-0.00105741,0.29051946,-0.5718992
 0,-0.02244048,-0.33144522,0.69380764,-0.00132655,0.00062837,0.02161706
 ,-0.00052643,-0.00049242,0.00267474,-0.00002789,0.00032438,-0.00174904
 ,0.00000054,0.00015306,0.00012100,0.00026756,0.00022182,-0.00078688,-0
 .00051109,-0.00034679,0.00012874,0.01000268,-0.02303469,-0.08173336,-0
 .01009913,0.03429655,0.03632035,-0.03087495,-0.04148790,-0.00669081,-0
 .00411786,-0.00154946,-0.00046263,-0.00015765,-0.00081640,-0.00002971,
 0.00167222,-0.00150119,-0.00001739,-0.00291132,-0.00097685,-0.00025977
 ,-0.00470376,0.00592530,0.00008409,-0.17297828,-0.08125514,-0.01476923
 ,0.03913282,0.00432577,0.00104773,0.66393666,-0.01283835,-0.00205609,-
 0.00214094,0.00178690,-0.00441770,-0.00030124,-0.00164461,0.00053003,-
 0.00000527,0.00122766,0.00019277,0.00009849,-0.00060726,0.00138594,0.0
 0011973,0.00104620,0.00160831,0.00009183,-0.05311884,-0.23161167,-0.01
 833747,-0.00708783,-0.11389517,-0.01311378,-0.00095229,0.41231514,-0.0
 0417737,-0.00418339,0.01124984,-0.00016974,-0.00053889,0.00040491,-0.0
 0010234,0.00005379,-0.00074860,0.00022207,-0.00009607,0.00007533,-0.00
 022720,0.00009343,-0.00047949,-0.00034408,0.00043950,0.00142640,-0.012
 29955,-0.02034171,-0.06846689,0.00004598,-0.01230086,0.02868200,0.0445
 0834,0.03276240,0.04429354,-0.00544304,0.00007369,-0.00033070,0.003992
 79,-0.00579079,-0.00058639,-0.04075438,0.00067593,-0.00324645,-0.17605
 414,0.00535533,-0.01021420,-0.03875412,0.00274350,-0.00292214,0.004343
 89,0.00543766,0.00042808,0.00604224,-0.00023496,0.00047553,-0.00247442
 ,0.00134779,-0.00006803,-0.00186343,-0.00120475,-0.00024368,0.25088128
 ,0.00028671,0.00209715,0.00026716,0.00124908,-0.00400616,-0.00070918,-
 0.02601129,0.00440103,-0.00196088,0.00536471,-0.04078270,-0.00089812,0
 .02944009,0.00212486,0.00179298,-0.00175656,-0.00440340,-0.00095361,-0
 .00021199,-0.00002018,0.00006367,-0.00000675,0.00021564,0.00000618,0.0
 0017024,0.00023799,0.00002670,-0.00855759,0.03775814,-0.00031201,0.000
 25197,-0.00071368,0.00003155,-0.00121106,0.00498361,-0.00558896,-0.000
 05820,0.00520984,-0.01021338,-0.00089879,-0.02700035,-0.00057874,-0.00
 011037,0.00555930,-0.00020341,-0.00044072,0.00498071,0.00047758,0.0000
 6203,-0.00087815,-0.00018697,0.00010275,0.00013544,-0.00012304,-0.0000
 7132,0.00005694,0.01624049,0.00160243,0.01385014,0.01212964,0.01177575
 ,0.00161051,-0.13884532,-0.12989702,-0.01840100,-0.01107865,-0.0261565
 6,-0.00343868,-0.00410889,0.00075041,-0.00079161,-0.00094690,0.0008646
 8,0.00009158,-0.00085622,0.00370695,-0.00019114,0.00175947,0.00103430,
 0.00051028,0.00003507,-0.00084726,-0.00011615,-0.00421465,0.00034127,-
 0.00028545,-0.00125254,-0.00076353,-0.00014378,0.14565983,-0.01607654,
 -0.01769134,-0.00305361,-0.12775447,-0.26482451,-0.02878340,0.00313715
 ,0.00637097,0.00034849,0.00114124,0.00152369,-0.00047995,0.00076995,0.
 00025420,0.00017964,0.00389586,-0.00343208,-0.00058427,-0.00211550,-0.
 00216055,0.00002167,0.00023978,0.00091832,0.00004319,-0.00049564,0.001
 36375,0.00006588,0.00039160,0.00013903,0.00005556,0.13816597,0.2773303
 4,-0.00083423,-0.00106805,0.00388569,-0.01821300,-0.02893594,-0.044515
 73,-0.00086726,-0.00174003,0.00473438,-0.00075732,-0.00050786,0.007819
 88,0.00008322,0.00018640,-0.00114462,-0.00017454,-0.00059772,0.0063238
 2,0.00023373,0.00024618,-0.00408670,-0.00002069,-0.00003431,0.00061652
 ,-0.00035892,0.00012557,0.00019592,-0.00004239,-0.00002680,-0.00018120
 ,0.02059173,0.03182884,0.03120602,-0.00527407,-0.00099694,-0.00101190,
 -0.00941283,0.02772695,0.00151228,-0.12358947,0.12415672,0.00475047,0.
 00969965,-0.01596185,-0.00095695,-0.00137403,-0.00331308,-0.00081150,-
 0.00090884,-0.00079566,-0.00005086,0.00078798,0.00150110,0.00015246,-0
 .00092914,0.00027216,-0.00002003,-0.00021542,-0.00028333,-0.00004001,0
 .00107969,-0.00054372,0.00024087,0.00107318,-0.00039515,0.00034883,0.1
 2839447,-0.00057994,0.00187795,-0.00055163,-0.00147073,0.00440035,-0.0
 0002694,0.12127989,-0.28161307,-0.01279343,0.01486642,-0.01874773,-0.0
 0089031,-0.00370294,-0.00276508,-0.00102719,-0.00104760,0.00020415,0.0
 0004637,-0.00026946,0.00021724,-0.00004379,-0.00002255,-0.00002963,0.0
 0002324,0.00009484,0.00001696,0.00000850,0.00047418,0.00099961,0.00038
 210,0.00031650,0.00050157,0.00044456,-0.13067878,0.29579589,-0.0009752
 5,-0.00058132,0.00757065,-0.00105062,0.00205469,0.00361821,0.00449794,
 -0.01258832,-0.03814354,0.00174908,-0.00308821,0.00332357,-0.00084574,
 -0.00099939,0.00578141,-0.00007298,0.00006433,-0.00117459,-0.00000293,
 0.00008243,0.00050416,-0.00004593,0.00004425,-0.00031208,-0.00000683,-
 0.00001846,-0.00000493,0.00033023,0.00030953,-0.00291757,0.00041128,0.
 00039382,-0.00424206,-0.00413475,0.01440941,0.02646813,-0.00506695,0.0
 0158363,-0.00078819,-0.00080223,0.00087207,0.00010403,-0.00087411,0.00
 327611,-0.00019936,0.00956990,0.01398456,0.00166413,-0.14097793,-0.132
 54804,-0.01900171,-0.01112077,-0.02651254,-0.00337328,0.00056724,-0.00
 158335,-0.00012445,-0.00025116,0.00034162,0.00000829,-0.00079399,-0.00
 009719,-0.00005355,0.00114007,0.00049898,0.00033320,0.00001766,-0.0001
 0918,0.00005772,0.00063821,0.00069276,0.00008059,0.14688551,0.00123787
 ,0.00168823,-0.00046029,0.00107659,0.00007378,0.00018749,0.00367272,-0
 .00329261,-0.00054996,-0.01677296,-0.01866653,-0.00313681,-0.12964412,
 -0.26109026,-0.02885628,0.00259590,0.00647084,0.00044130,0.00019665,0.
 00028879,0.00000751,-0.00007582,-0.00002520,-0.00001230,0.00008611,-0.
 00000384,0.00002004,-0.00052142,0.00108719,0.00031450,-0.00007435,-0.0
 0001483,0.00007471,-0.00079442,-0.00082935,-0.00016111,0.13940514,0.27
 381829,-0.00081849,-0.00043568,0.00784102,0.00012198,0.00017291,-0.001
 16387,-0.00016456,-0.00057823,0.00589335,-0.00103569,-0.00094396,0.003
 28928,-0.01874682,-0.02906332,-0.04153383,-0.00081821,-0.00163397,0.00
 334997,0.00003181,-0.00011938,0.00035484,-0.00002836,0.00001745,0.0000
 5288,-0.00003748,0.00000698,-0.00016435,0.00024364,0.00038725,-0.00286
 788,0.00006077,0.00007222,-0.00091564,-0.00004995,-0.00005508,0.000352
 40,0.02088149,0.03172417,0.02990346,0.01301283,-0.01339349,-0.00059875
 ,-0.00157803,-0.00357146,-0.00085895,-0.00101194,-0.00078644,-0.000058
 72,-0.00411598,-0.00026975,-0.00088702,-0.00918633,0.02676144,0.001341
 25,-0.12450466,0.12225195,0.00480880,0.00061949,-0.00229824,0.00013105
 ,-0.00194727,0.00074761,-0.00005644,0.00045054,0.00141093,0.00014822,-
 0.00120982,0.00084700,0.00000253,0.00062802,-0.00092690,-0.00006688,0.
 00001693,0.00006078,0.00006724,0.00111179,-0.00042032,0.00035442,0.127
 79823,0.01380212,-0.01866246,-0.00108613,-0.00381187,-0.00284323,-0.00
 105440,-0.00070098,0.00038978,0.00008577,-0.00066482,0.00156332,-0.000
 61182,-0.00216627,0.00499256,-0.00015062,0.12043842,-0.28042370,-0.012
 39069,0.00210800,-0.00272067,0.00026676,0.00066516,0.00232486,0.000272
 15,-0.00000538,0.00079532,0.00005992,-0.00036429,0.00013480,0.00000362
 ,0.00076799,-0.00085821,-0.00005787,0.00008652,-0.00002883,0.00007837,
 0.00030488,0.00047647,0.00044775,-0.13032141,0.29493634,0.00178850,-0.
 00302488,0.00478360,-0.00088003,-0.00103728,0.00591888,-0.00005126,0.0
 0007966,-0.00115333,-0.00092170,-0.00058361,0.00787656,-0.00119786,0.0
 0191181,0.00503125,0.00464951,-0.01226156,-0.04218437,0.00051768,-0.00
 004735,-0.00401506,-0.00006366,0.00027797,-0.00021517,0.00002396,0.000
 16092,0.00012389,-0.00010380,0.00008998,-0.00020187,0.00008189,-0.0001
 7871,0.00041502,0.00006950,0.00007653,-0.00083967,0.00041808,0.0003960
 4,-0.00431231,-0.00429910,0.01417049,0.02858642,0.00171066,-0.00305290
 ,-0.00046066,0.00081150,-0.00015308,0.00005931,0.00014385,0.00019489,0
 .00001985,-0.00027427,0.00014399,-0.00001058,0.00030786,-0.00057347,-0
 .00000137,-0.00083849,0.00026964,-0.00007779,-0.03476143,-0.00692669,-
 0.00337690,0.00325442,0.00892672,0.00142492,-0.48236093,0.07202148,-0.
 02698164,0.00032592,-0.00000539,0.00002407,0.00000030,0.00013183,0.000
 02001,0.00001367,-0.00001336,-0.00000134,-0.00004322,0.00003242,0.0000
 0545,-0.00008379,-0.00013807,-0.00003171,0.51179397,-0.00139436,-0.005
 90740,-0.00100545,0.00069064,-0.00043254,0.00002961,0.00021163,0.00036
 605,0.00003796,-0.00003711,-0.00014267,-0.00001969,-0.00013970,-0.0004
 6660,-0.00001765,-0.00125792,0.00054153,-0.00009351,-0.05325441,0.0102
 7453,-0.00325232,0.00759389,-0.00016234,0.00103104,0.11843799,-0.06646
 174,0.00393075,0.00017412,0.00001700,0.00001552,0.00001491,0.00057965,
 0.00006232,0.00001948,-0.00000004,-0.00000002,-0.00010945,0.00001902,0
 .00000087,-0.00009170,-0.00007635,-0.00003000,-0.07085802,0.06185190,-
 0.00031551,-0.00112369,0.00429588,0.00013331,-0.00003051,-0.00020223,0
 .00002133,0.00003676,0.00011016,-0.00002648,-0.00000680,0.00004900,0.0
 0003669,-0.00004851,-0.00038086,-0.00021183,0.00001537,0.00057136,-0.0
 0744179,0.00004937,0.00356171,0.00130773,0.00112621,-0.00555219,-0.022
 90832,0.00062257,-0.01664451,0.00003981,0.00000272,-0.00001526,0.00000
 975,0.00007064,-0.00011131,0.00000154,-0.00000236,0.00001591,-0.000007
 00,0.00001098,-0.00007932,-0.00002764,-0.00003331,0.00018617,0.0293883
 9,-0.00068944,0.01419549\\0.00019631,0.00002231,0.00001863,-0.00004100
 ,0.00013655,0.00000931,-0.00009530,-0.00003835,-0.00001035,0.00007014,
 0.00004978,0.00000937,-0.00000663,-0.00002087,-0.00000246,-0.00007098,
 -0.00006670,-0.00001064,-0.00010562,-0.00012044,-0.00002723,0.00002809
 ,0.00003271,0.00000837,0.00012096,0.00000818,0.00001209,-0.00004004,-0
 .00000137,-0.00000294,-0.00001342,-0.00007024,-0.00000709,0.00000671,-
 0.00001736,-0.00000108,0.00001981,0.00001806,0.00000296,0.00002001,0.0
 0003409,0.00000443,-0.00008902,0.00003364,-0.00000336\\\@
 The archive entry for this job was punched.


  THE LARGE PRINT GIVETH,
  AND THE SMALL PRINT TAKETH AWAY.

                     -- TOM WAITS
 Job cpu time:       0 days 10 hours 49 minutes 25.1 seconds.
 Elapsed time:       0 days  0 hours 32 minutes 29.2 seconds.
 File lengths (MBytes):  RWF=    390 Int=      0 D2E=      0 Chk=     27 Scr=      1
 Normal termination of Gaussian 16 at Thu Apr 27 13:27:35 2023.
