 Entering Gaussian System, Link 0=g16
 Initial command:
 /usr/local/gaussian16c01/g16/l1.exe "/scr/akj/Gau-240966.inp" -scrdir="/scr/akj/"
 Entering Link 1 = /usr/local/gaussian16c01/g16/l1.exe PID=    240967.
  
 Copyright (c) 1988-2019, Gaussian, Inc.  All Rights Reserved.
  
 This is part of the Gaussian(R) 16 program.  It is based on
 the Gaussian(R) 09 system (copyright 2009, Gaussian, Inc.),
 the Gaussian(R) 03 system (copyright 2003, Gaussian, Inc.),
 the Gaussian(R) 98 system (copyright 1998, Gaussian, Inc.),
 the Gaussian(R) 94 system (copyright 1995, Gaussian, Inc.),
 the Gaussian 92(TM) system (copyright 1992, Gaussian, Inc.),
 the Gaussian 90(TM) system (copyright 1990, Gaussian, Inc.),
 the Gaussian 88(TM) system (copyright 1988, Gaussian, Inc.),
 the Gaussian 86(TM) system (copyright 1986, Carnegie Mellon
 University), and the Gaussian 82(TM) system (copyright 1983,
 Carnegie Mellon University). Gaussian is a federally registered
 trademark of Gaussian, Inc.
  
 This software contains proprietary and confidential information,
 including trade secrets, belonging to Gaussian, Inc.
  
 This software is provided under written license and may be
 used, copied, transmitted, or stored only in accord with that
 written license.
  
 The following legend is applicable only to US Government
 contracts under FAR:
  
                    RESTRICTED RIGHTS LEGEND
  
 Use, reproduction and disclosure by the US Government is
 subject to restrictions as set forth in subparagraphs (a)
 and (c) of the Commercial Computer Software - Restricted
 Rights clause in FAR 52.227-19.
  
 Gaussian, Inc.
 340 Quinnipiac St., Bldg. 40, Wallingford CT 06492
  
  
 ---------------------------------------------------------------
 Warning -- This program may not be used in any manner that
 competes with the business of Gaussian, Inc. or will provide
 assistance to any competitor of Gaussian, Inc.  The licensee
 of this program is prohibited from giving any competitor of
 Gaussian, Inc. access to this program.  By using this program,
 the user acknowledges that Gaussian, Inc. is engaged in the
 business of creating and licensing software in the field of
 computational chemistry and represents and warrants to the
 licensee that it is not a competitor of Gaussian, Inc. and that
 it will not use this program in any manner prohibited above.
 ---------------------------------------------------------------
  

 Cite this work as:
 Gaussian 16, Revision C.01,
 M. J. Frisch, G. W. Trucks, H. B. Schlegel, G. E. Scuseria, 
 M. A. Robb, J. R. Cheeseman, G. Scalmani, V. Barone, 
 G. A. Petersson, H. Nakatsuji, X. Li, M. Caricato, A. V. Marenich, 
 J. Bloino, B. G. Janesko, R. Gomperts, B. Mennucci, H. P. Hratchian, 
 J. V. Ortiz, A. F. Izmaylov, J. L. Sonnenberg, D. Williams-Young, 
 F. Ding, F. Lipparini, F. Egidi, J. Goings, B. Peng, A. Petrone, 
 T. Henderson, D. Ranasinghe, V. G. Zakrzewski, J. Gao, N. Rega, 
 G. Zheng, W. Liang, M. Hada, M. Ehara, K. Toyota, R. Fukuda, 
 J. Hasegawa, M. Ishida, T. Nakajima, Y. Honda, O. Kitao, H. Nakai, 
 T. Vreven, K. Throssell, J. A. Montgomery, Jr., J. E. Peralta, 
 F. Ogliaro, M. J. Bearpark, J. J. Heyd, E. N. Brothers, K. N. Kudin, 
 V. N. Staroverov, T. A. Keith, R. Kobayashi, J. Normand, 
 K. Raghavachari, A. P. Rendell, J. C. Burant, S. S. Iyengar, 
 J. Tomasi, M. Cossi, J. M. Millam, M. Klene, C. Adamo, R. Cammi, 
 J. W. Ochterski, R. L. Martin, K. Morokuma, O. Farkas, 
 J. B. Foresman, and D. J. Fox, Gaussian, Inc., Wallingford CT, 2019.
 
 ******************************************
 Gaussian 16:  ES64L-G16RevC.01  3-Jul-2019
                27-Apr-2023 
 ******************************************
 %nprocshared=20
 Will use up to   20 processors via shared memory.
 %mem=10000MW
 %chk=CYH-197-A_eq00002.chk
 ------------------------------------
 # opt freq M062x/aug-cc-pvtz pop=nbo
 ------------------------------------
 1/18=20,19=15,26=3,38=1/1,3;
 2/9=110,12=2,17=6,18=5,40=1/2;
 3/5=16,6=1,7=10,11=2,25=1,30=1,71=1,74=-55/1,2,3;
 4//1;
 5/5=2,38=5/2;
 6/7=2,8=2,9=2,10=2,28=1,40=1/1,7;
 7//1,2,3,16;
 1/18=20,19=15,26=3/3(2);
 2/9=110/2;
 99//99;
 2/9=110/2;
 3/5=16,6=1,7=10,11=2,25=1,30=1,71=1,74=-55/1,2,3;
 4/5=5,16=3,69=1/1;
 5/5=2,38=5/2;
 7//1,2,3,16;
 1/18=20,19=15,26=3/3(-5);
 2/9=110/2;
 6/7=2,8=2,9=2,10=2,19=2,28=1,40=1/1,7;
 99/9=1/99;
 -----------------
 CYH-197-A_eq00002
 -----------------
 Symbolic Z-matrix:
 Charge =  0 Multiplicity = 1
 C                    -0.35278  -0.22718  -0.10473 
 C                     0.30605  -1.41389  -0.41845 
 C                     1.67786  -1.50248  -0.27268 
 C                     2.40245  -0.4142    0.18522 
 C                     1.73539   0.76097   0.49417 
 C                     0.36481   0.87239   0.35601 
 C                    -1.82527  -0.16768  -0.27346 
 O                    -2.50097  -1.0837   -0.66761 
 O                    -2.34929   1.01969   0.05809 
 Br                    2.73013   2.2578    1.12369 
 H                    -0.27628  -2.24996  -0.77352 
 H                     2.19174  -2.41992  -0.51498 
 H                     3.47373  -0.47463   0.30185 
 H                    -0.1452    1.79112   0.59867 
 H                    -3.31065   1.00414  -0.07008 
 

 GradGradGradGradGradGradGradGradGradGradGradGradGradGradGradGradGradGrad
 Berny optimization.
 Initialization pass.
                           ----------------------------
                           !    Initial Parameters    !
                           ! (Angstroms and Degrees)  !
 --------------------------                            --------------------------
 ! Name  Definition              Value          Derivative Info.                !
 --------------------------------------------------------------------------------
 ! R1    R(1,2)                  1.3931         estimate D2E/DX2                !
 ! R2    R(1,6)                  1.3915         estimate D2E/DX2                !
 ! R3    R(1,7)                  1.4833         estimate D2E/DX2                !
 ! R4    R(2,3)                  1.3824         estimate D2E/DX2                !
 ! R5    R(2,11)                 1.079          estimate D2E/DX2                !
 ! R6    R(3,4)                  1.3853         estimate D2E/DX2                !
 ! R7    R(3,12)                 1.0791         estimate D2E/DX2                !
 ! R8    R(4,5)                  1.3862         estimate D2E/DX2                !
 ! R9    R(4,13)                 1.0793         estimate D2E/DX2                !
 ! R10   R(5,6)                  1.382          estimate D2E/DX2                !
 ! R11   R(5,10)                 1.9043         estimate D2E/DX2                !
 ! R12   R(6,14)                 1.0785         estimate D2E/DX2                !
 ! R13   R(7,8)                  1.2046         estimate D2E/DX2                !
 ! R14   R(7,9)                  1.3395         estimate D2E/DX2                !
 ! R15   R(9,15)                 0.97           estimate D2E/DX2                !
 ! A1    A(2,1,6)              120.2528         estimate D2E/DX2                !
 ! A2    A(2,1,7)              118.5559         estimate D2E/DX2                !
 ! A3    A(6,1,7)              121.1913         estimate D2E/DX2                !
 ! A4    A(1,2,3)              120.0099         estimate D2E/DX2                !
 ! A5    A(1,2,11)             118.6165         estimate D2E/DX2                !
 ! A6    A(3,2,11)             121.3736         estimate D2E/DX2                !
 ! A7    A(2,3,4)              120.236          estimate D2E/DX2                !
 ! A8    A(2,3,12)             120.2238         estimate D2E/DX2                !
 ! A9    A(4,3,12)             119.5401         estimate D2E/DX2                !
 ! A10   A(3,4,5)              119.2082         estimate D2E/DX2                !
 ! A11   A(3,4,13)             120.7239         estimate D2E/DX2                !
 ! A12   A(5,4,13)             120.0679         estimate D2E/DX2                !
 ! A13   A(4,5,6)              121.554          estimate D2E/DX2                !
 ! A14   A(4,5,10)             119.2549         estimate D2E/DX2                !
 ! A15   A(6,5,10)             119.191          estimate D2E/DX2                !
 ! A16   A(1,6,5)              118.7391         estimate D2E/DX2                !
 ! A17   A(1,6,14)             120.2522         estimate D2E/DX2                !
 ! A18   A(5,6,14)             121.0087         estimate D2E/DX2                !
 ! A19   A(1,7,8)              124.3029         estimate D2E/DX2                !
 ! A20   A(1,7,9)              113.312          estimate D2E/DX2                !
 ! A21   A(8,7,9)              122.3851         estimate D2E/DX2                !
 ! A22   A(7,9,15)             109.9254         estimate D2E/DX2                !
 ! D1    D(6,1,2,3)             -0.0069         estimate D2E/DX2                !
 ! D2    D(6,1,2,11)          -179.9974         estimate D2E/DX2                !
 ! D3    D(7,1,2,3)            179.9867         estimate D2E/DX2                !
 ! D4    D(7,1,2,11)            -0.0038         estimate D2E/DX2                !
 ! D5    D(2,1,6,5)             -0.0025         estimate D2E/DX2                !
 ! D6    D(2,1,6,14)           179.9871         estimate D2E/DX2                !
 ! D7    D(7,1,6,5)           -179.9959         estimate D2E/DX2                !
 ! D8    D(7,1,6,14)            -0.0063         estimate D2E/DX2                !
 ! D9    D(2,1,7,8)             -0.0123         estimate D2E/DX2                !
 ! D10   D(2,1,7,9)            179.9859         estimate D2E/DX2                !
 ! D11   D(6,1,7,8)            179.9812         estimate D2E/DX2                !
 ! D12   D(6,1,7,9)             -0.0206         estimate D2E/DX2                !
 ! D13   D(1,2,3,4)              0.0095         estimate D2E/DX2                !
 ! D14   D(1,2,3,12)          -179.9805         estimate D2E/DX2                !
 ! D15   D(11,2,3,4)           179.9996         estimate D2E/DX2                !
 ! D16   D(11,2,3,12)            0.0097         estimate D2E/DX2                !
 ! D17   D(2,3,4,5)             -0.0025         estimate D2E/DX2                !
 ! D18   D(2,3,4,13)          -179.9921         estimate D2E/DX2                !
 ! D19   D(12,3,4,5)           179.9875         estimate D2E/DX2                !
 ! D20   D(12,3,4,13)           -0.0021         estimate D2E/DX2                !
 ! D21   D(3,4,5,6)             -0.0071         estimate D2E/DX2                !
 ! D22   D(3,4,5,10)          -179.9989         estimate D2E/DX2                !
 ! D23   D(13,4,5,6)           179.9825         estimate D2E/DX2                !
 ! D24   D(13,4,5,10)           -0.0092         estimate D2E/DX2                !
 ! D25   D(4,5,6,1)              0.0095         estimate D2E/DX2                !
 ! D26   D(4,5,6,14)          -179.98           estimate D2E/DX2                !
 ! D27   D(10,5,6,1)          -179.9987         estimate D2E/DX2                !
 ! D28   D(10,5,6,14)            0.0118         estimate D2E/DX2                !
 ! D29   D(1,7,9,15)          -179.985          estimate D2E/DX2                !
 ! D30   D(8,7,9,15)             0.0133         estimate D2E/DX2                !
 --------------------------------------------------------------------------------
 Trust Radius=3.00D-01 FncErr=1.00D-07 GrdErr=1.00D-06 EigMax=2.50D+02 EigMin=1.00D-04
 Number of steps in this run=     77 maximum allowed number of steps=    100.
 GradGradGradGradGradGradGradGradGradGradGradGradGradGradGradGradGradGrad

                          Input orientation:                          
 ---------------------------------------------------------------------
 Center     Atomic      Atomic             Coordinates (Angstroms)
 Number     Number       Type             X           Y           Z
 ---------------------------------------------------------------------
      1          6           0       -0.352780   -0.227177   -0.104725
      2          6           0        0.306046   -1.413886   -0.418454
      3          6           0        1.677861   -1.502482   -0.272683
      4          6           0        2.402449   -0.414197    0.185215
      5          6           0        1.735394    0.760974    0.494175
      6          6           0        0.364806    0.872391    0.356006
      7          6           0       -1.825272   -0.167680   -0.273457
      8          8           0       -2.500975   -1.083696   -0.667607
      9          8           0       -2.349294    1.019694    0.058092
     10         35           0        2.730128    2.257802    1.123694
     11          1           0       -0.276282   -2.249963   -0.773524
     12          1           0        2.191741   -2.419919   -0.514980
     13          1           0        3.473728   -0.474626    0.301854
     14          1           0       -0.145198    1.791124    0.598675
     15          1           0       -3.310652    1.004142   -0.070081
 ---------------------------------------------------------------------
                    Distance matrix (angstroms):
                    1          2          3          4          5
     1  C    0.000000
     2  C    1.393110   0.000000
     3  C    2.403771   1.382381   0.000000
     4  C    2.776748   2.399729   1.385302   0.000000
     5  C    2.386544   2.757888   2.390526   1.386162   0.000000
     6  C    1.391493   2.414602   2.785567   2.415878   1.382034
     7  C    1.483322   2.473170   3.748819   4.259668   3.758989
     8  O    2.380169   2.837335   4.218296   5.021862   4.764385
     9  O    2.359505   3.633213   4.763272   4.965004   4.116039
    10  Br   4.145896   4.662155   4.146911   2.850912   1.904280
    11  H    2.131855   1.078983   2.151336   3.385973   3.836618
    12  H    3.383934   2.139454   1.079106   2.134851   3.368193
    13  H    3.855996   3.381607   2.147491   1.079303   2.141379
    14  H    2.147417   3.392678   3.864020   3.394833   2.146801
    15  H    3.204116   4.364485   5.586544   5.892061   5.083316
                    6          7          8          9         10
     6  C    0.000000
     7  C    2.504877   0.000000
     8  O    3.617562   1.204580   0.000000
     9  O    2.734371   1.339544   2.230223   0.000000
    10  Br   2.846657   5.346649   6.460557   5.335630   0.000000
    11  H    3.381704   2.642979   2.514091   3.959750   5.740895
    12  H    3.864661   4.611649   4.881635   5.725412   4.985598
    13  H    3.388626   5.338970   6.083412   6.016644   2.948648
    14  H    1.078454   2.724000   3.926543   2.396951   2.959887
    15  H    3.702418   1.902861   2.317689   0.969990   6.283931
                   11         12         13         14         15
    11  H    0.000000
    12  H    2.487341   0.000000
    13  H    4.286121   2.468780   0.000000
    14  H    4.269718   4.943115   4.279995   0.000000
    15  H    4.504601   6.496033   6.953626   3.329666   0.000000
 Stoichiometry    C7H5BrO2
 Framework group  C1[X(C7H5BrO2)]
 Deg. of freedom    39
 Full point group                 C1      NOp   1
 Largest Abelian subgroup         C1      NOp   1
 Largest concise Abelian subgroup C1      NOp   1
                         Standard orientation:                         
 ---------------------------------------------------------------------
 Center     Atomic      Atomic             Coordinates (Angstroms)
 Number     Number       Type             X           Y           Z
 ---------------------------------------------------------------------
      1          6           0        1.553577    0.183021    0.000096
      2          6           0        1.634434    1.573782    0.000191
      3          6           0        0.479523    2.333491    0.000049
      4          6           0       -0.761021    1.716958    0.000009
      5          6           0       -0.828286    0.332429    0.000061
      6          6           0        0.312927   -0.447090    0.000004
      7          6           0        2.813105   -0.600455   -0.000049
      8          8           0        3.915130   -0.114084   -0.000305
      9          8           0        2.613461   -1.925038    0.000173
     10         35           0       -2.532885   -0.516469   -0.000027
     11          1           0        2.610010    2.034710    0.000218
     12          1           0        0.538132    3.411004   -0.000196
     13          1           0       -1.667743    2.302407   -0.000230
     14          1           0        0.250344   -1.523726   -0.000278
     15          1           0        3.465932   -2.387826    0.000305
 ---------------------------------------------------------------------
 Rotational constants (GHZ):           2.0370989           0.4793027           0.3880092
 Standard basis: Aug-CC-pVTZ (5D, 7F)
 There are   689 symmetry adapted cartesian basis functions of A   symmetry.
 There are   588 symmetry adapted basis functions of A   symmetry.
   588 basis functions,  1000 primitive gaussians,   689 cartesian basis functions
    49 alpha electrons       49 beta electrons
       nuclear repulsion energy       703.2645932789 Hartrees.
 NAtoms=   15 NActive=   15 NUniq=   15 SFac= 1.00D+00 NAtFMM=   60 NAOKFM=F Big=F
 Integral buffers will be    131072 words long.
 Raffenetti 2 integral format.
 Two-electron integral symmetry is turned on.
 One-electron integrals computed using PRISM.
 NBasis=   588 RedAO= T EigKep=  1.20D-06  NBF=   588
 NBsUse=   587 1.00D-06 EigRej=  5.97D-07 NBFU=   587
 ExpMin= 2.53D-02 ExpMax= 1.06D+07 ExpMxC= 1.21D+04 IAcc=3 IRadAn=         5 AccDes= 0.00D+00
 Harris functional with IExCor= 1009 and IRadAn=       5 diagonalized for initial guess.
 HarFok:  IExCor= 1009 AccDes= 0.00D+00 IRadAn=         5 IDoV= 1 UseB2=F ITyADJ=14
 ICtDFT=  3500011 ScaDFX=  1.000000  1.000000  1.000000  1.000000
 FoFCou: FMM=F IPFlag=           0 FMFlag=      100000 FMFlg1=           0
         NFxFlg=           0 DoJE=T BraDBF=F KetDBF=T FulRan=T
         wScrn=  0.000000 ICntrl=       500 IOpCl=  0 I1Cent=   200000004 NGrid=           0
         NMat0=    1 NMatS0=      1 NMatT0=    0 NMatD0=    1 NMtDS0=    0 NMtDT0=    0
 Petite list used in FoFCou.
 Requested convergence on RMS density matrix=1.00D-08 within 128 cycles.
 Requested convergence on MAX density matrix=1.00D-06.
 Requested convergence on             energy=1.00D-06.
 No special actions if energy rises.
 SCF Done:  E(RM062X) =  -2994.46169022     A.U. after   13 cycles
            NFock= 13  Conv=0.98D-08     -V/T= 2.0018

 **********************************************************************

            Population analysis using the SCF Density.

 **********************************************************************

 Orbital symmetries:
       Occupied  (A) (A) (A) (A) (A) (A) (A) (A) (A) (A) (A) (A)
                 (A) (A) (A) (A) (A) (A) (A) (A) (A) (A) (A) (A)
                 (A) (A) (A) (A) (A) (A) (A) (A) (A) (A) (A) (A)
                 (A) (A) (A) (A) (A) (A) (A) (A) (A) (A) (A) (A)
                 (A)
       Virtual   (A) (A) (A) (A) (A) (A) (A) (A) (A) (A) (A) (A)
                 (A) (A) (A) (A) (A) (A) (A) (A) (A) (A) (A) (A)
                 (A) (A) (A) (A) (A) (A) (A) (A) (A) (A) (A) (A)
                 (A) (A) (A) (A) (A) (A) (A) (A) (A) (A) (A) (A)
                 (A) (A) (A) (A) (A) (A) (A) (A) (A) (A) (A) (A)
                 (A) (A) (A) (A) (A) (A) (A) (A) (A) (A) (A) (A)
                 (A) (A) (A) (A) (A) (A) (A) (A) (A) (A) (A) (A)
                 (A) (A) (A) (A) (A) (A) (A) (A) (A) (A) (A) (A)
                 (A) (A) (A) (A) (A) (A) (A) (A) (A) (A) (A) (A)
                 (A) (A) (A) (A) (A) (A) (A) (A) (A) (A) (A) (A)
                 (A) (A) (A) (A) (A) (A) (A) (A) (A) (A) (A) (A)
                 (A) (A) (A) (A) (A) (A) (A) (A) (A) (A) (A) (A)
                 (A) (A) (A) (A) (A) (A) (A) (A) (A) (A) (A) (A)
                 (A) (A) (A) (A) (A) (A) (A) (A) (A) (A) (A) (A)
                 (A) (A) (A) (A) (A) (A) (A) (A) (A) (A) (A) (A)
                 (A) (A) (A) (A) (A) (A) (A) (A) (A) (A) (A) (A)
                 (A) (A) (A) (A) (A) (A) (A) (A) (A) (A) (A) (A)
                 (A) (A) (A) (A) (A) (A) (A) (A) (A) (A) (A) (A)
                 (A) (A) (A) (A) (A) (A) (A) (A) (A) (A) (A) (A)
                 (A) (A) (A) (A) (A) (A) (A) (A) (A) (A) (A) (A)
                 (A) (A) (A) (A) (A) (A) (A) (A) (A) (A) (A) (A)
                 (A) (A) (A) (A) (A) (A) (A) (A) (A) (A) (A) (A)
                 (A) (A) (A) (A) (A) (A) (A) (A) (A) (A) (A) (A)
                 (A) (A) (A) (A) (A) (A) (A) (A) (A) (A) (A) (A)
                 (A) (A) (A) (A) (A) (A) (A) (A) (A) (A) (A) (A)
                 (A) (A) (A) (A) (A) (A) (A) (A) (A) (A) (A) (A)
                 (A) (A) (A) (A) (A) (A) (A) (A) (A) (A) (A) (A)
                 (A) (A) (A) (A) (A) (A) (A) (A) (A) (A) (A) (A)
                 (A) (A) (A) (A) (A) (A) (A) (A) (A) (A) (A) (A)
                 (A) (A) (A) (A) (A) (A) (A) (A) (A) (A) (A) (A)
                 (A) (A) (A) (A) (A) (A) (A) (A) (A) (A) (A) (A)
                 (A) (A) (A) (A) (A) (A) (A) (A) (A) (A) (A) (A)
                 (A) (A) (A) (A) (A) (A) (A) (A) (A) (A) (A) (A)
                 (A) (A) (A) (A) (A) (A) (A) (A) (A) (A) (A) (A)
                 (A) (A) (A) (A) (A) (A) (A) (A) (A) (A) (A) (A)
                 (A) (A) (A) (A) (A) (A) (A) (A) (A) (A) (A) (A)
                 (A) (A) (A) (A) (A) (A) (A) (A) (A) (A) (A) (A)
                 (A) (A) (A) (A) (A) (A) (A) (A) (A) (A) (A) (A)
                 (A) (A) (A) (A) (A) (A) (A) (A) (A) (A) (A) (A)
                 (A) (A) (A) (A) (A) (A) (A) (A) (A) (A) (A) (A)
                 (A) (A) (A) (A) (A) (A) (A) (A) (A) (A) (A) (A)
                 (A) (A) (A) (A) (A) (A) (A) (A) (A) (A) (A) (A)
                 (A) (A) (A) (A) (A) (A) (A) (A) (A) (A) (A) (A)
                 (A) (A) (A) (A) (A) (A) (A) (A) (A) (A) (A) (A)
                 (A) (A) (A) (A) (A) (A) (A) (A) (A) (A)
 The electronic state is 1-A.
 Alpha  occ. eigenvalues -- -485.39041 -63.37538 -57.19643 -57.19411 -57.19402
 Alpha  occ. eigenvalues --  -19.68654 -19.62789 -10.69276 -10.61754 -10.58006
 Alpha  occ. eigenvalues --  -10.57512 -10.57495 -10.56891 -10.56789  -9.03775
 Alpha  occ. eigenvalues --   -6.86094  -6.85208  -6.85188  -2.89488  -2.89166
 Alpha  occ. eigenvalues --   -2.89142  -2.88326  -2.88326  -1.25364  -1.15532
 Alpha  occ. eigenvalues --   -1.00510  -0.91956  -0.89003  -0.83480  -0.77612
 Alpha  occ. eigenvalues --   -0.71961  -0.67903  -0.62713  -0.59740  -0.57675
 Alpha  occ. eigenvalues --   -0.55574  -0.55011  -0.53345  -0.49744  -0.49250
 Alpha  occ. eigenvalues --   -0.47920  -0.44872  -0.42414  -0.41598  -0.38966
 Alpha  occ. eigenvalues --   -0.37522  -0.35836  -0.34039  -0.31247
 Alpha virt. eigenvalues --   -0.03922  -0.00979  -0.00627  -0.00197   0.00671
 Alpha virt. eigenvalues --    0.01521   0.01944   0.02814   0.02899   0.04063
 Alpha virt. eigenvalues --    0.05025   0.05603   0.05685   0.05973   0.06512
 Alpha virt. eigenvalues --    0.06973   0.07692   0.08113   0.08632   0.08859
 Alpha virt. eigenvalues --    0.08923   0.09532   0.09720   0.09791   0.10054
 Alpha virt. eigenvalues --    0.10149   0.11048   0.12241   0.12468   0.12789
 Alpha virt. eigenvalues --    0.13639   0.13904   0.15382   0.15517   0.16256
 Alpha virt. eigenvalues --    0.16423   0.17609   0.18027   0.18600   0.18853
 Alpha virt. eigenvalues --    0.18911   0.19685   0.19889   0.19965   0.20887
 Alpha virt. eigenvalues --    0.20956   0.21622   0.22042   0.22242   0.23617
 Alpha virt. eigenvalues --    0.23659   0.23901   0.24847   0.24871   0.26009
 Alpha virt. eigenvalues --    0.26067   0.26520   0.26852   0.27141   0.28173
 Alpha virt. eigenvalues --    0.28950   0.29378   0.29574   0.31180   0.31454
 Alpha virt. eigenvalues --    0.32294   0.32715   0.33455   0.33490   0.34219
 Alpha virt. eigenvalues --    0.34454   0.34518   0.34729   0.34783   0.35401
 Alpha virt. eigenvalues --    0.35662   0.36286   0.36857   0.37456   0.38098
 Alpha virt. eigenvalues --    0.38162   0.38666   0.39253   0.39764   0.40228
 Alpha virt. eigenvalues --    0.40758   0.41559   0.41875   0.43128   0.43327
 Alpha virt. eigenvalues --    0.43599   0.44000   0.44914   0.45792   0.46104
 Alpha virt. eigenvalues --    0.47696   0.48509   0.48665   0.49441   0.50257
 Alpha virt. eigenvalues --    0.51004   0.51177   0.52064   0.52791   0.53180
 Alpha virt. eigenvalues --    0.53583   0.54657   0.54846   0.55216   0.56337
 Alpha virt. eigenvalues --    0.57011   0.57929   0.58855   0.59055   0.59498
 Alpha virt. eigenvalues --    0.60141   0.61359   0.62911   0.63532   0.63991
 Alpha virt. eigenvalues --    0.65210   0.65634   0.66911   0.66963   0.67534
 Alpha virt. eigenvalues --    0.67784   0.69831   0.70294   0.70526   0.71028
 Alpha virt. eigenvalues --    0.72025   0.72878   0.73389   0.73592   0.74242
 Alpha virt. eigenvalues --    0.74626   0.75118   0.75352   0.75755   0.76115
 Alpha virt. eigenvalues --    0.76459   0.77735   0.78748   0.78846   0.79759
 Alpha virt. eigenvalues --    0.80132   0.80181   0.80701   0.80990   0.81813
 Alpha virt. eigenvalues --    0.82876   0.83648   0.83932   0.84997   0.85691
 Alpha virt. eigenvalues --    0.86765   0.87669   0.87808   0.89092   0.89358
 Alpha virt. eigenvalues --    0.89742   0.90004   0.90082   0.90686   0.90806
 Alpha virt. eigenvalues --    0.90956   0.92156   0.92929   0.94078   0.94730
 Alpha virt. eigenvalues --    0.95472   0.95674   0.96481   0.96865   0.97221
 Alpha virt. eigenvalues --    0.98638   0.98906   0.99082   1.00386   1.01316
 Alpha virt. eigenvalues --    1.01559   1.02228   1.03195   1.03398   1.04276
 Alpha virt. eigenvalues --    1.05869   1.06291   1.06760   1.07591   1.07649
 Alpha virt. eigenvalues --    1.08439   1.08659   1.10029   1.10613   1.10650
 Alpha virt. eigenvalues --    1.11969   1.14571   1.15069   1.15483   1.16450
 Alpha virt. eigenvalues --    1.16559   1.18273   1.19184   1.19799   1.21088
 Alpha virt. eigenvalues --    1.21575   1.22290   1.22414   1.24123   1.24686
 Alpha virt. eigenvalues --    1.25652   1.27880   1.28133   1.28968   1.31102
 Alpha virt. eigenvalues --    1.31773   1.31809   1.32470   1.32907   1.34331
 Alpha virt. eigenvalues --    1.36047   1.37107   1.37278   1.38392   1.38688
 Alpha virt. eigenvalues --    1.40073   1.43294   1.43789   1.45038   1.45402
 Alpha virt. eigenvalues --    1.47613   1.47982   1.48714   1.50894   1.51584
 Alpha virt. eigenvalues --    1.51767   1.52728   1.53434   1.55366   1.55396
 Alpha virt. eigenvalues --    1.56889   1.58820   1.59856   1.61372   1.63180
 Alpha virt. eigenvalues --    1.64005   1.64263   1.65587   1.65984   1.66573
 Alpha virt. eigenvalues --    1.66580   1.67943   1.68581   1.69120   1.69744
 Alpha virt. eigenvalues --    1.72029   1.74329   1.75250   1.76848   1.76928
 Alpha virt. eigenvalues --    1.77692   1.79469   1.80866   1.83081   1.83446
 Alpha virt. eigenvalues --    1.83746   1.85265   1.86324   1.87072   1.87637
 Alpha virt. eigenvalues --    1.88508   1.89604   1.89796   1.90878   1.91699
 Alpha virt. eigenvalues --    1.93816   1.95478   1.97417   1.98662   1.98866
 Alpha virt. eigenvalues --    2.00994   2.01802   2.02957   2.04471   2.04780
 Alpha virt. eigenvalues --    2.05362   2.07518   2.08191   2.10083   2.11482
 Alpha virt. eigenvalues --    2.12133   2.13063   2.14248   2.15871   2.16307
 Alpha virt. eigenvalues --    2.16922   2.17044   2.17888   2.18509   2.20373
 Alpha virt. eigenvalues --    2.21084   2.21841   2.23017   2.24969   2.26203
 Alpha virt. eigenvalues --    2.27012   2.28134   2.29198   2.29903   2.31720
 Alpha virt. eigenvalues --    2.33791   2.34556   2.35441   2.36520   2.37857
 Alpha virt. eigenvalues --    2.39603   2.41469   2.42319   2.43309   2.44358
 Alpha virt. eigenvalues --    2.46738   2.48894   2.48986   2.50807   2.54104
 Alpha virt. eigenvalues --    2.54975   2.56339   2.57203   2.57215   2.60818
 Alpha virt. eigenvalues --    2.61387   2.65285   2.65751   2.67482   2.70165
 Alpha virt. eigenvalues --    2.72500   2.74500   2.75780   2.78981   2.80984
 Alpha virt. eigenvalues --    2.85269   2.86166   2.88758   2.89950   2.91421
 Alpha virt. eigenvalues --    2.93061   2.93157   2.96384   2.96389   2.99081
 Alpha virt. eigenvalues --    2.99561   3.00942   3.01717   3.04778   3.06425
 Alpha virt. eigenvalues --    3.08956   3.09163   3.10878   3.11959   3.13421
 Alpha virt. eigenvalues --    3.14406   3.16404   3.17037   3.18678   3.19418
 Alpha virt. eigenvalues --    3.23145   3.24070   3.24139   3.25336   3.26139
 Alpha virt. eigenvalues --    3.27389   3.29221   3.29223   3.30276   3.33301
 Alpha virt. eigenvalues --    3.35227   3.35740   3.37072   3.39598   3.41686
 Alpha virt. eigenvalues --    3.43803   3.44967   3.46986   3.47908   3.50791
 Alpha virt. eigenvalues --    3.51131   3.52114   3.52377   3.53341   3.53757
 Alpha virt. eigenvalues --    3.57063   3.59063   3.60183   3.60810   3.61064
 Alpha virt. eigenvalues --    3.61652   3.63461   3.64186   3.66734   3.69364
 Alpha virt. eigenvalues --    3.70235   3.72584   3.73448   3.73874   3.75425
 Alpha virt. eigenvalues --    3.75877   3.78437   3.79161   3.81941   3.84459
 Alpha virt. eigenvalues --    3.84954   3.84999   3.86752   3.88309   3.90191
 Alpha virt. eigenvalues --    3.91364   3.92304   3.93683   3.94929   3.95577
 Alpha virt. eigenvalues --    3.95805   3.97093   3.97896   3.99382   4.01891
 Alpha virt. eigenvalues --    4.02328   4.05065   4.05144   4.08632   4.09802
 Alpha virt. eigenvalues --    4.10511   4.10906   4.14188   4.15259   4.17316
 Alpha virt. eigenvalues --    4.19031   4.19707   4.22241   4.25364   4.25822
 Alpha virt. eigenvalues --    4.31571   4.31709   4.32226   4.33624   4.33811
 Alpha virt. eigenvalues --    4.35235   4.41083   4.41611   4.42452   4.47258
 Alpha virt. eigenvalues --    4.48651   4.50572   4.52096   4.54610   4.55768
 Alpha virt. eigenvalues --    4.56247   4.61543   4.63908   4.64709   4.71357
 Alpha virt. eigenvalues --    4.71515   4.72882   4.73345   4.74738   4.76285
 Alpha virt. eigenvalues --    4.76554   4.80026   4.80053   4.85648   4.88945
 Alpha virt. eigenvalues --    4.89866   4.90930   4.93150   4.95482   4.98108
 Alpha virt. eigenvalues --    4.99116   5.03839   5.06140   5.06730   5.16346
 Alpha virt. eigenvalues --    5.23597   5.24651   5.29798   5.31547   5.33737
 Alpha virt. eigenvalues --    5.36128   5.39010   5.48798   5.56572   5.62748
 Alpha virt. eigenvalues --    5.73952   5.74035   5.78542   5.83056   5.86866
 Alpha virt. eigenvalues --    5.95885   5.98697   6.05876   6.19065   6.21108
 Alpha virt. eigenvalues --    6.23452   6.25920   6.34394   6.36086   6.37779
 Alpha virt. eigenvalues --    6.39017   6.41724   6.47286   6.55348   6.55452
 Alpha virt. eigenvalues --    6.57211   6.64581   6.70136   6.75061   6.79990
 Alpha virt. eigenvalues --    6.81211   6.83398   6.85896   6.92203   7.05157
 Alpha virt. eigenvalues --    7.06442   7.11724   7.14636   7.27923   7.35115
 Alpha virt. eigenvalues --    7.47302   7.57667   7.82140   8.05240  14.85315
 Alpha virt. eigenvalues --   15.02473  15.94207  16.47905  17.74408  18.03648
 Alpha virt. eigenvalues --   18.96867  19.22640  19.48568
          Condensed to atoms (all electrons):
               1          2          3          4          5          6
     1  C    6.945766  -0.590780  -0.270377  -0.497345  -0.292270  -0.299325
     2  C   -0.590780   8.056535   0.079444  -0.032462  -0.588821  -0.126663
     3  C   -0.270377   0.079444   7.071031   0.053585   0.000403  -0.538028
     4  C   -0.497345  -0.032462   0.053585   7.154088  -0.095771  -0.217131
     5  C   -0.292270  -0.588821   0.000403  -0.095771   6.464667   0.097665
     6  C   -0.299325  -0.126663  -0.538028  -0.217131   0.097665   7.949975
     7  C   -0.198120  -0.256357   0.037889   0.098099   0.147961  -0.437132
     8  O   -0.063433   0.145302  -0.045575  -0.006511  -0.052691  -0.027297
     9  O   -0.018776  -0.010875  -0.025703   0.006017  -0.025805  -0.006519
    10  Br   0.040300   0.079100   0.047534  -0.114724   0.341698  -0.001327
    11  H   -0.354789   0.497134  -0.430275   0.104131  -0.025820   0.058668
    12  H    0.115206  -0.317192   0.651587  -0.475004   0.046241   0.007017
    13  H    0.014897  -0.000566  -0.460331   0.551652  -0.246697   0.045057
    14  H   -0.232664  -0.033417  -0.002661   0.053029  -0.183253   0.340530
    15  H    0.009715  -0.050828  -0.004996  -0.000042   0.021876   0.021692
               7          8          9         10         11         12
     1  C   -0.198120  -0.063433  -0.018776   0.040300  -0.354789   0.115206
     2  C   -0.256357   0.145302  -0.010875   0.079100   0.497134  -0.317192
     3  C    0.037889  -0.045575  -0.025703   0.047534  -0.430275   0.651587
     4  C    0.098099  -0.006511   0.006017  -0.114724   0.104131  -0.475004
     5  C    0.147961  -0.052691  -0.025805   0.341698  -0.025820   0.046241
     6  C   -0.437132  -0.027297  -0.006519  -0.001327   0.058668   0.007017
     7  C    6.160425  -0.114697   0.100321  -0.005836   0.018848  -0.000832
     8  O   -0.114697   9.295916  -0.099616   0.000715  -0.008314  -0.004719
     9  O    0.100321  -0.099616   8.514067  -0.000401   0.006194  -0.000926
    10  Br  -0.005836   0.000715  -0.000401  34.957856  -0.002090   0.014333
    11  H    0.018848  -0.008314   0.006194  -0.002090   1.165769  -0.200269
    12  H   -0.000832  -0.004719  -0.000926   0.014333  -0.200269   1.144693
    13  H   -0.002822   0.000722   0.000732  -0.180684   0.029266  -0.229440
    14  H   -0.002392   0.003850  -0.064510  -0.077399  -0.016034   0.004999
    15  H    0.077670  -0.110118   0.147461  -0.000117   0.000872   0.000146
              13         14         15
     1  C    0.014897  -0.232664   0.009715
     2  C   -0.000566  -0.033417  -0.050828
     3  C   -0.460331  -0.002661  -0.004996
     4  C    0.551652   0.053029  -0.000042
     5  C   -0.246697  -0.183253   0.021876
     6  C    0.045057   0.340530   0.021692
     7  C   -0.002822  -0.002392   0.077670
     8  O    0.000722   0.003850  -0.110118
     9  O    0.000732  -0.064510   0.147461
    10  Br  -0.180684  -0.077399  -0.000117
    11  H    0.029266  -0.016034   0.000872
    12  H   -0.229440   0.004999   0.000146
    13  H    1.078642  -0.013338  -0.000152
    14  H   -0.013338   0.806453  -0.000133
    15  H   -0.000152  -0.000133   0.581383
 Mulliken charges:
               1
     1  C    1.691992
     2  C   -0.849554
     3  C   -0.163528
     4  C   -0.581612
     5  C    0.390617
     6  C   -0.867180
     7  C    0.376975
     8  O   -0.913532
     9  O   -0.521662
    10  Br  -0.098960
    11  H    0.156710
    12  H    0.244161
    13  H    0.413062
    14  H    0.416940
    15  H    0.305572
 Sum of Mulliken charges =   0.00000
 Mulliken charges with hydrogens summed into heavy atoms:
               1
     1  C    1.691992
     2  C   -0.692844
     3  C    0.080632
     4  C   -0.168550
     5  C    0.390617
     6  C   -0.450240
     7  C    0.376975
     8  O   -0.913532
     9  O   -0.216091
    10  Br  -0.098960
 Electronic spatial extent (au):  <R**2>=           2472.2490
 Charge=              0.0000 electrons
 Dipole moment (field-independent basis, Debye):
    X=             -0.4024    Y=              0.2381    Z=              0.0002  Tot=              0.4675
 Quadrupole moment (field-independent basis, Debye-Ang):
   XX=            -77.0539   YY=            -59.0218   ZZ=            -72.1442
   XY=             -6.7094   XZ=              0.0038   YZ=             -0.0011
 Traceless Quadrupole moment (field-independent basis, Debye-Ang):
   XX=             -7.6472   YY=             10.3848   ZZ=             -2.7375
   XY=             -6.7094   XZ=              0.0038   YZ=             -0.0011
 Octapole moment (field-independent basis, Debye-Ang**2):
  XXX=            -98.4445  YYY=            -18.6349  ZZZ=             -0.0024  XYY=              1.5055
  XXY=            -35.8163  XXZ=              0.0142  XZZ=            -18.1263  YZZ=            -11.9381
  YYZ=             -0.0028  XYZ=             -0.0020
 Hexadecapole moment (field-independent basis, Debye-Ang**3):
 XXXX=          -2236.1998 YYYY=           -599.0588 ZZZZ=            -79.7867 XXXY=            -88.2943
 XXXZ=              0.0663 YYYX=            -31.5156 YYYZ=             -0.0190 ZZZX=             -0.0003
 ZZZY=             -0.0027 XXYY=           -350.9440 XXZZ=           -360.1054 YYZZ=           -139.9163
 XXYZ=             -0.0143 YYXZ=              0.0114 ZZXY=              3.0142
 N-N= 7.032645932789D+02 E-N=-8.539914099729D+03  KE= 2.989061091711D+03
 ******************************Gaussian NBO Version 3.1******************************
             N A T U R A L   A T O M I C   O R B I T A L   A N D
          N A T U R A L   B O N D   O R B I T A L   A N A L Y S I S
 ******************************Gaussian NBO Version 3.1******************************
       /RESON  / : Allow strongly delocalized NBO set

 Analyzing the SCF density

 Job title: CYH-197-A_eq00002                                               

 Storage needed:   1039794 in NPA,   1385024 in NBO (********** available)
 GSVD:  LWork=       38424 too small for GESVD, short by      572706 words or      572706 for optimal perf.


 NATURAL POPULATIONS:  Natural atomic orbital occupancies 
                                                          
   NAO  Atom  No  lang   Type(AO)    Occupancy      Energy
 ----------------------------------------------------------
     1    C    1  S      Cor( 1S)     1.99899     -10.42838
     2    C    1  S      Val( 2S)     0.93262      -0.20201
     3    C    1  S      Ryd( 3S)     0.00124       1.79333
     4    C    1  S      Ryd( 4S)     0.00006       2.05057
     5    C    1  S      Ryd( 5S)     0.00004       3.76135
     6    C    1  px     Val( 2p)     1.06058      -0.10136
     7    C    1  px     Ryd( 4p)     0.00588       2.04254
     8    C    1  px     Ryd( 5p)     0.00005       2.47292
     9    C    1  px     Ryd( 3p)     0.00005       1.03119
    10    C    1  py     Val( 2p)     1.08887      -0.10427
    11    C    1  py     Ryd( 4p)     0.00602       1.97771
    12    C    1  py     Ryd( 5p)     0.00007       2.33590
    13    C    1  py     Ryd( 3p)     0.00003       1.08249
    14    C    1  pz     Val( 2p)     1.05201      -0.14624
    15    C    1  pz     Ryd( 4p)     0.00087       0.88261
    16    C    1  pz     Ryd( 5p)     0.00008       1.90726
    17    C    1  pz     Ryd( 3p)     0.00002       0.60010
    18    C    1  dxy    Ryd( 3d)     0.00201       3.04237
    19    C    1  dxy    Ryd( 4d)     0.00021       3.69543
    20    C    1  dxy    Ryd( 5d)     0.00005       4.41048
    21    C    1  dxz    Ryd( 3d)     0.00022       1.46026
    22    C    1  dxz    Ryd( 5d)     0.00011       2.79379
    23    C    1  dxz    Ryd( 4d)     0.00002       2.42868
    24    C    1  dyz    Ryd( 3d)     0.00035       1.41653
    25    C    1  dyz    Ryd( 5d)     0.00009       2.75101
    26    C    1  dyz    Ryd( 4d)     0.00005       2.43728
    27    C    1  dx2y2  Ryd( 3d)     0.00074       2.59396
    28    C    1  dx2y2  Ryd( 4d)     0.00035       3.52656
    29    C    1  dx2y2  Ryd( 5d)     0.00004       5.11920
    30    C    1  dz2    Ryd( 3d)     0.00081       1.70509
    31    C    1  dz2    Ryd( 4d)     0.00013       3.64571
    32    C    1  dz2    Ryd( 5d)     0.00008       4.56962
    33    C    1  f(0)   Ryd( 4f)     0.00048       1.34241
    34    C    1  f(0)   Ryd( 5f)     0.00015       3.55281
    35    C    1  f(C1)  Ryd( 4f)     0.00024       1.70256
    36    C    1  f(C1)  Ryd( 5f)     0.00033       3.68523
    37    C    1  f(S1)  Ryd( 4f)     0.00046       1.75526
    38    C    1  f(S1)  Ryd( 5f)     0.00029       3.69169
    39    C    1  f(C2)  Ryd( 4f)     0.00056       1.27384
    40    C    1  f(C2)  Ryd( 5f)     0.00003       3.59878
    41    C    1  f(S2)  Ryd( 4f)     0.00067       1.26923
    42    C    1  f(S2)  Ryd( 5f)     0.00002       3.60037
    43    C    1  f(C3)  Ryd( 4f)     0.00217       2.19289
    44    C    1  f(C3)  Ryd( 5f)     0.00015       4.52147
    45    C    1  f(S3)  Ryd( 4f)     0.00077       2.41386
    46    C    1  f(S3)  Ryd( 5f)     0.00012       4.18138
 
    47    C    2  S      Cor( 1S)     1.99921     -10.41092
    48    C    2  S      Val( 2S)     0.96583      -0.22290
    49    C    2  S      Ryd( 4S)     0.00118       1.72543
    50    C    2  S      Ryd( 5S)     0.00010       3.11943
    51    C    2  S      Ryd( 3S)     0.00003       1.50635
    52    C    2  px     Val( 2p)     1.16310      -0.08851
    53    C    2  px     Ryd( 4p)     0.00426       1.76420
    54    C    2  px     Ryd( 5p)     0.00008       2.08915
    55    C    2  px     Ryd( 3p)     0.00007       1.36356
    56    C    2  py     Val( 2p)     1.06138      -0.07665
    57    C    2  py     Ryd( 5p)     0.00327       1.64602
    58    C    2  py     Ryd( 4p)     0.00003       1.59467
    59    C    2  py     Ryd( 3p)     0.00003       1.29647
    60    C    2  pz     Val( 2p)     0.94904      -0.13156
    61    C    2  pz     Ryd( 4p)     0.00069       1.01401
    62    C    2  pz     Ryd( 5p)     0.00004       1.34361
    63    C    2  pz     Ryd( 3p)     0.00001       0.92780
    64    C    2  dxy    Ryd( 3d)     0.00169       2.73727
    65    C    2  dxy    Ryd( 5d)     0.00023       3.78190
    66    C    2  dxy    Ryd( 4d)     0.00008       2.90005
    67    C    2  dxz    Ryd( 3d)     0.00034       1.49245
    68    C    2  dxz    Ryd( 5d)     0.00003       2.94535
    69    C    2  dxz    Ryd( 4d)     0.00003       1.62353
    70    C    2  dyz    Ryd( 3d)     0.00034       1.42017
    71    C    2  dyz    Ryd( 5d)     0.00003       2.89299
    72    C    2  dyz    Ryd( 4d)     0.00002       1.71975
    73    C    2  dx2y2  Ryd( 4d)     0.00161       3.08905
    74    C    2  dx2y2  Ryd( 5d)     0.00018       3.85525
    75    C    2  dx2y2  Ryd( 3d)     0.00006       2.39593
    76    C    2  dz2    Ryd( 3d)     0.00086       1.73649
    77    C    2  dz2    Ryd( 4d)     0.00010       3.62000
    78    C    2  dz2    Ryd( 5d)     0.00006       3.69645
    79    C    2  f(0)   Ryd( 5f)     0.00009       3.40273
    80    C    2  f(0)   Ryd( 4f)     0.00003       2.17992
    81    C    2  f(C1)  Ryd( 5f)     0.00020       3.72829
    82    C    2  f(C1)  Ryd( 4f)     0.00003       2.96094
    83    C    2  f(S1)  Ryd( 5f)     0.00022       3.64910
    84    C    2  f(S1)  Ryd( 4f)     0.00001       2.95107
    85    C    2  f(C2)  Ryd( 5f)     0.00001       3.50789
    86    C    2  f(C2)  Ryd( 4f)     0.00002       2.15687
    87    C    2  f(S2)  Ryd( 5f)     0.00002       3.53939
    88    C    2  f(S2)  Ryd( 4f)     0.00002       2.36864
    89    C    2  f(C3)  Ryd( 5f)     0.00008       4.15674
    90    C    2  f(C3)  Ryd( 4f)     0.00012       3.74483
    91    C    2  f(S3)  Ryd( 4f)     0.00015       4.16522
    92    C    2  f(S3)  Ryd( 5f)     0.00005       5.82009
 
    93    C    3  S      Cor( 1S)     1.99926     -10.41316
    94    C    3  S      Val( 2S)     0.96667      -0.23108
    95    C    3  S      Ryd( 3S)     0.00105       1.70672
    96    C    3  S      Ryd( 4S)     0.00004       2.15905
    97    C    3  S      Ryd( 5S)     0.00002       2.76443
    98    C    3  px     Val( 2p)     1.04493      -0.07916
    99    C    3  px     Ryd( 5p)     0.00304       1.62689
   100    C    3  px     Ryd( 4p)     0.00007       1.30954
   101    C    3  px     Ryd( 3p)     0.00001       1.15319
   102    C    3  py     Val( 2p)     1.17415      -0.09171
   103    C    3  py     Ryd( 4p)     0.00488       1.59294
   104    C    3  py     Ryd( 5p)     0.00003       1.98285
   105    C    3  py     Ryd( 3p)     0.00004       1.38098
   106    C    3  pz     Val( 2p)     0.99031      -0.13820
   107    C    3  pz     Ryd( 4p)     0.00056       1.00059
   108    C    3  pz     Ryd( 5p)     0.00000       1.39941
   109    C    3  pz     Ryd( 3p)     0.00002       0.82876
   110    C    3  dxy    Ryd( 4d)     0.00142       3.39375
   111    C    3  dxy    Ryd( 5d)     0.00024       3.67807
   112    C    3  dxy    Ryd( 3d)     0.00005       2.21539
   113    C    3  dxz    Ryd( 3d)     0.00055       1.34881
   114    C    3  dxz    Ryd( 5d)     0.00001       2.77091
   115    C    3  dxz    Ryd( 4d)     0.00003       2.01884
   116    C    3  dyz    Ryd( 3d)     0.00016       1.39597
   117    C    3  dyz    Ryd( 5d)     0.00006       2.88931
   118    C    3  dyz    Ryd( 4d)     0.00002       1.60967
   119    C    3  dx2y2  Ryd( 3d)     0.00225       2.17827
   120    C    3  dx2y2  Ryd( 5d)     0.00015       3.51666
   121    C    3  dx2y2  Ryd( 4d)     0.00007       3.02364
   122    C    3  dz2    Ryd( 3d)     0.00079       1.71188
   123    C    3  dz2    Ryd( 5d)     0.00008       3.88077
   124    C    3  dz2    Ryd( 4d)     0.00009       3.50774
   125    C    3  f(0)   Ryd( 5f)     0.00010       3.41379
   126    C    3  f(0)   Ryd( 4f)     0.00002       2.13904
   127    C    3  f(C1)  Ryd( 5f)     0.00025       3.62656
   128    C    3  f(C1)  Ryd( 4f)     0.00001       2.75678
   129    C    3  f(S1)  Ryd( 5f)     0.00016       3.64903
   130    C    3  f(S1)  Ryd( 4f)     0.00003       2.55778
   131    C    3  f(C2)  Ryd( 5f)     0.00001       3.62248
   132    C    3  f(C2)  Ryd( 4f)     0.00001       2.18398
   133    C    3  f(S2)  Ryd( 5f)     0.00001       3.50186
   134    C    3  f(S2)  Ryd( 4f)     0.00000       2.33365
   135    C    3  f(C3)  Ryd( 5f)     0.00012       4.15936
   136    C    3  f(C3)  Ryd( 4f)     0.00008       4.02358
   137    C    3  f(S3)  Ryd( 4f)     0.00012       4.12834
   138    C    3  f(S3)  Ryd( 5f)     0.00004       4.99452
 
   139    C    4  S      Cor( 1S)     1.99912     -10.41498
   140    C    4  S      Val( 2S)     0.96890      -0.23137
   141    C    4  S      Ryd( 3S)     0.00145       1.69418
   142    C    4  S      Ryd( 4S)     0.00011       2.19065
   143    C    4  S      Ryd( 5S)     0.00002       2.39617
   144    C    4  px     Val( 2p)     1.14801      -0.09747
   145    C    4  px     Ryd( 4p)     0.00595       1.61074
   146    C    4  px     Ryd( 5p)     0.00010       2.10262
   147    C    4  px     Ryd( 3p)     0.00003       1.36149
   148    C    4  py     Val( 2p)     1.10411      -0.10768
   149    C    4  py     Ryd( 4p)     0.00377       1.52129
   150    C    4  py     Ryd( 5p)     0.00009       1.76634
   151    C    4  py     Ryd( 3p)     0.00004       1.44382
   152    C    4  pz     Val( 2p)     0.96786      -0.13834
   153    C    4  pz     Ryd( 3p)     0.00094       0.85083
   154    C    4  pz     Ryd( 5p)     0.00002       1.47278
   155    C    4  pz     Ryd( 4p)     0.00004       0.90011
   156    C    4  dxy    Ryd( 3d)     0.00197       2.04366
   157    C    4  dxy    Ryd( 5d)     0.00022       3.87189
   158    C    4  dxy    Ryd( 4d)     0.00006       2.50027
   159    C    4  dxz    Ryd( 3d)     0.00033       1.29089
   160    C    4  dxz    Ryd( 5d)     0.00004       3.26804
   161    C    4  dxz    Ryd( 4d)     0.00005       1.36575
   162    C    4  dyz    Ryd( 3d)     0.00005       1.16208
   163    C    4  dyz    Ryd( 5d)     0.00017       3.17052
   164    C    4  dyz    Ryd( 4d)     0.00002       1.25565
   165    C    4  dx2y2  Ryd( 4d)     0.00193       2.94437
   166    C    4  dx2y2  Ryd( 5d)     0.00015       4.28261
   167    C    4  dx2y2  Ryd( 3d)     0.00005       1.55552
   168    C    4  dz2    Ryd( 3d)     0.00081       1.51781
   169    C    4  dz2    Ryd( 4d)     0.00007       3.98756
   170    C    4  dz2    Ryd( 5d)     0.00010       4.21298
   171    C    4  f(0)   Ryd( 4f)     0.00013       1.60050
   172    C    4  f(0)   Ryd( 5f)     0.00010       3.17004
   173    C    4  f(C1)  Ryd( 4f)     0.00053       2.00800
   174    C    4  f(C1)  Ryd( 5f)     0.00012       3.36094
   175    C    4  f(S1)  Ryd( 4f)     0.00062       1.95291
   176    C    4  f(S1)  Ryd( 5f)     0.00014       3.27786
   177    C    4  f(C2)  Ryd( 4f)     0.00007       1.61032
   178    C    4  f(C2)  Ryd( 5f)     0.00002       3.21345
   179    C    4  f(S2)  Ryd( 4f)     0.00020       1.73719
   180    C    4  f(S2)  Ryd( 5f)     0.00006       3.14519
   181    C    4  f(C3)  Ryd( 4f)     0.00078       2.01894
   182    C    4  f(C3)  Ryd( 5f)     0.00025       3.74491
   183    C    4  f(S3)  Ryd( 4f)     0.00043       2.47035
   184    C    4  f(S3)  Ryd( 5f)     0.00017       3.76232
 
   185    C    5  S      Cor( 1S)     1.99868     -10.47927
   186    C    5  S      Val( 2S)     0.96395      -0.27724
   187    C    5  S      Ryd( 3S)     0.00129       1.37449
   188    C    5  S      Ryd( 5S)     0.00010       3.90519
   189    C    5  S      Ryd( 4S)     0.00002       2.22043
   190    C    5  px     Val( 2p)     0.98652      -0.16644
   191    C    5  px     Ryd( 4p)     0.00619       1.30057
   192    C    5  px     Ryd( 5p)     0.00011       3.93849
   193    C    5  px     Ryd( 3p)     0.00004       1.11832
   194    C    5  py     Val( 2p)     1.04588      -0.11520
   195    C    5  py     Ryd( 4p)     0.00548       1.33162
   196    C    5  py     Ryd( 5p)     0.00006       3.01329
   197    C    5  py     Ryd( 3p)     0.00005       1.14112
   198    C    5  pz     Val( 2p)     1.06987      -0.16980
   199    C    5  pz     Ryd( 3p)     0.00134       0.66571
   200    C    5  pz     Ryd( 5p)     0.00007       2.35519
   201    C    5  pz     Ryd( 4p)     0.00002       0.67775
   202    C    5  dxy    Ryd( 3d)     0.00122       2.99946
   203    C    5  dxy    Ryd( 5d)     0.00020       3.76008
   204    C    5  dxy    Ryd( 4d)     0.00005       3.01207
   205    C    5  dxz    Ryd( 3d)     0.00104       1.31601
   206    C    5  dxz    Ryd( 5d)     0.00006       3.00869
   207    C    5  dxz    Ryd( 4d)     0.00003       1.57999
   208    C    5  dyz    Ryd( 3d)     0.00068       1.33147
   209    C    5  dyz    Ryd( 5d)     0.00003       2.97321
   210    C    5  dyz    Ryd( 4d)     0.00001       1.94454
   211    C    5  dx2y2  Ryd( 4d)     0.00161       2.93531
   212    C    5  dx2y2  Ryd( 5d)     0.00025       3.88058
   213    C    5  dx2y2  Ryd( 3d)     0.00009       2.58892
   214    C    5  dz2    Ryd( 3d)     0.00133       1.72964
   215    C    5  dz2    Ryd( 5d)     0.00013       3.78974
   216    C    5  dz2    Ryd( 4d)     0.00012       3.49080
   217    C    5  f(0)   Ryd( 4f)     0.00136       1.23627
   218    C    5  f(0)   Ryd( 5f)     0.00004       3.43282
   219    C    5  f(C1)  Ryd( 4f)     0.00121       1.54417
   220    C    5  f(C1)  Ryd( 5f)     0.00012       3.50052
   221    C    5  f(S1)  Ryd( 4f)     0.00098       1.80247
   222    C    5  f(S1)  Ryd( 5f)     0.00018       3.54747
   223    C    5  f(C2)  Ryd( 4f)     0.00043       1.21495
   224    C    5  f(C2)  Ryd( 5f)     0.00005       3.51216
   225    C    5  f(S2)  Ryd( 4f)     0.00052       1.22972
   226    C    5  f(S2)  Ryd( 5f)     0.00007       3.49130
   227    C    5  f(C3)  Ryd( 4f)     0.00183       1.66183
   228    C    5  f(C3)  Ryd( 5f)     0.00028       4.16019
   229    C    5  f(S3)  Ryd( 4f)     0.00190       2.31031
   230    C    5  f(S3)  Ryd( 5f)     0.00008       3.92180
 
   231    C    6  S      Cor( 1S)     1.99904     -10.41326
   232    C    6  S      Val( 2S)     0.96212      -0.21879
   233    C    6  S      Ryd( 3S)     0.00148       1.70720
   234    C    6  S      Ryd( 5S)     0.00011       2.32896
   235    C    6  S      Ryd( 4S)     0.00003       2.31186
   236    C    6  px     Val( 2p)     1.05491      -0.09313
   237    C    6  px     Ryd( 4p)     0.00410       1.72819
   238    C    6  px     Ryd( 5p)     0.00010       1.88898
   239    C    6  px     Ryd( 3p)     0.00004       1.55930
   240    C    6  py     Val( 2p)     1.20087      -0.11017
   241    C    6  py     Ryd( 4p)     0.00547       1.56292
   242    C    6  py     Ryd( 5p)     0.00012       2.60930
   243    C    6  py     Ryd( 3p)     0.00007       1.54102
   244    C    6  pz     Val( 2p)     0.95853      -0.13686
   245    C    6  pz     Ryd( 3p)     0.00104       0.82702
   246    C    6  pz     Ryd( 5p)     0.00005       1.65646
   247    C    6  pz     Ryd( 4p)     0.00007       0.88232
   248    C    6  dxy    Ryd( 4d)     0.00147       3.33398
   249    C    6  dxy    Ryd( 5d)     0.00024       4.22955
   250    C    6  dxy    Ryd( 3d)     0.00006       1.99003
   251    C    6  dxz    Ryd( 3d)     0.00013       1.22924
   252    C    6  dxz    Ryd( 5d)     0.00019       2.94250
   253    C    6  dxz    Ryd( 4d)     0.00004       1.82196
   254    C    6  dyz    Ryd( 3d)     0.00023       1.30275
   255    C    6  dyz    Ryd( 5d)     0.00011       3.06333
   256    C    6  dyz    Ryd( 4d)     0.00005       1.58184
   257    C    6  dx2y2  Ryd( 3d)     0.00150       2.07439
   258    C    6  dx2y2  Ryd( 5d)     0.00022       3.68707
   259    C    6  dx2y2  Ryd( 4d)     0.00008       3.47770
   260    C    6  dz2    Ryd( 3d)     0.00086       1.54929
   261    C    6  dz2    Ryd( 4d)     0.00010       3.65823
   262    C    6  dz2    Ryd( 5d)     0.00009       4.01058
   263    C    6  f(0)   Ryd( 4f)     0.00011       1.44480
   264    C    6  f(0)   Ryd( 5f)     0.00013       3.40379
   265    C    6  f(C1)  Ryd( 4f)     0.00047       2.04603
   266    C    6  f(C1)  Ryd( 5f)     0.00024       3.58352
   267    C    6  f(S1)  Ryd( 4f)     0.00073       1.80243
   268    C    6  f(S1)  Ryd( 5f)     0.00012       3.59209
   269    C    6  f(C2)  Ryd( 4f)     0.00016       1.43511
   270    C    6  f(C2)  Ryd( 5f)     0.00003       3.42414
   271    C    6  f(S2)  Ryd( 4f)     0.00030       1.43784
   272    C    6  f(S2)  Ryd( 5f)     0.00002       3.46307
   273    C    6  f(C3)  Ryd( 4f)     0.00100       1.85163
   274    C    6  f(C3)  Ryd( 5f)     0.00021       4.28042
   275    C    6  f(S3)  Ryd( 4f)     0.00050       3.15455
   276    C    6  f(S3)  Ryd( 5f)     0.00019       4.10436
 
   277    C    7  S      Cor( 1S)     1.99938     -10.56955
   278    C    7  S      Val( 2S)     0.78909      -0.15387
   279    C    7  S      Ryd( 4S)     0.00423       1.88996
   280    C    7  S      Ryd( 3S)     0.00018       1.55022
   281    C    7  S      Ryd( 5S)     0.00006       2.29196
   282    C    7  px     Val( 2p)     0.87366      -0.04420
   283    C    7  px     Ryd( 5p)     0.01211       1.55489
   284    C    7  px     Ryd( 3p)     0.00019       1.00947
   285    C    7  px     Ryd( 4p)     0.00002       1.52604
   286    C    7  py     Val( 2p)     0.76114      -0.04751
   287    C    7  py     Ryd( 4p)     0.00762       1.56986
   288    C    7  py     Ryd( 3p)     0.00011       1.18705
   289    C    7  py     Ryd( 5p)     0.00004       1.61873
   290    C    7  pz     Val( 2p)     0.73973      -0.13349
   291    C    7  pz     Ryd( 5p)     0.00041       1.12233
   292    C    7  pz     Ryd( 3p)     0.00007       0.66028
   293    C    7  pz     Ryd( 4p)     0.00003       1.02559
   294    C    7  dxy    Ryd( 4d)     0.00184       3.20610
   295    C    7  dxy    Ryd( 3d)     0.00014       2.00392
   296    C    7  dxy    Ryd( 5d)     0.00009       3.86743
   297    C    7  dxz    Ryd( 5d)     0.00118       2.61572
   298    C    7  dxz    Ryd( 3d)     0.00014       1.59760
   299    C    7  dxz    Ryd( 4d)     0.00007       2.60615
   300    C    7  dyz    Ryd( 4d)     0.00139       2.46342
   301    C    7  dyz    Ryd( 3d)     0.00004       1.59049
   302    C    7  dyz    Ryd( 5d)     0.00005       2.64391
   303    C    7  dx2y2  Ryd( 4d)     0.00095       3.18983
   304    C    7  dx2y2  Ryd( 3d)     0.00035       2.27176
   305    C    7  dx2y2  Ryd( 5d)     0.00009       3.79235
   306    C    7  dz2    Ryd( 5d)     0.00026       3.43644
   307    C    7  dz2    Ryd( 3d)     0.00059       2.05122
   308    C    7  dz2    Ryd( 4d)     0.00009       3.22348
   309    C    7  f(0)   Ryd( 5f)     0.00010       3.30410
   310    C    7  f(0)   Ryd( 4f)     0.00003       2.53450
   311    C    7  f(C1)  Ryd( 5f)     0.00012       3.52574
   312    C    7  f(C1)  Ryd( 4f)     0.00003       3.49319
   313    C    7  f(S1)  Ryd( 5f)     0.00006       3.48900
   314    C    7  f(S1)  Ryd( 4f)     0.00002       3.00138
   315    C    7  f(C2)  Ryd( 5f)     0.00001       3.41113
   316    C    7  f(C2)  Ryd( 4f)     0.00000       2.91439
   317    C    7  f(S2)  Ryd( 5f)     0.00000       3.28725
   318    C    7  f(S2)  Ryd( 4f)     0.00005       2.70729
   319    C    7  f(C3)  Ryd( 4f)     0.00010       4.38142
   320    C    7  f(C3)  Ryd( 5f)     0.00004       4.44199
   321    C    7  f(S3)  Ryd( 4f)     0.00007       4.53176
   322    C    7  f(S3)  Ryd( 5f)     0.00003       8.02290
 
   323    O    8  S      Cor( 1S)     1.99977     -19.33875
   324    O    8  S      Val( 2S)     1.70189      -1.01562
   325    O    8  S      Ryd( 4S)     0.00068       2.88279
   326    O    8  S      Ryd( 3S)     0.00021       1.73321
   327    O    8  S      Ryd( 5S)     0.00002       8.48557
   328    O    8  px     Val( 2p)     1.59902      -0.35393
   329    O    8  px     Ryd( 4p)     0.00062       1.57903
   330    O    8  px     Ryd( 3p)     0.00012       0.76965
   331    O    8  px     Ryd( 5p)     0.00008       5.31732
   332    O    8  py     Val( 2p)     1.80873      -0.35443
   333    O    8  py     Ryd( 4p)     0.00224       1.23741
   334    O    8  py     Ryd( 3p)     0.00007       0.71932
   335    O    8  py     Ryd( 5p)     0.00001       4.65783
   336    O    8  pz     Val( 2p)     1.45672      -0.30203
   337    O    8  pz     Ryd( 4p)     0.00054       1.01365
   338    O    8  pz     Ryd( 3p)     0.00002       0.54280
   339    O    8  pz     Ryd( 5p)     0.00001       4.16146
   340    O    8  dxy    Ryd( 3d)     0.00729       1.89596
   341    O    8  dxy    Ryd( 4d)     0.00009       2.75328
   342    O    8  dxy    Ryd( 5d)     0.00003       6.51833
   343    O    8  dxz    Ryd( 3d)     0.00599       1.52352
   344    O    8  dxz    Ryd( 4d)     0.00003       1.78017
   345    O    8  dxz    Ryd( 5d)     0.00003       6.37068
   346    O    8  dyz    Ryd( 3d)     0.00121       1.42014
   347    O    8  dyz    Ryd( 4d)     0.00001       1.66476
   348    O    8  dyz    Ryd( 5d)     0.00001       6.40131
   349    O    8  dx2y2  Ryd( 3d)     0.00729       1.92394
   350    O    8  dx2y2  Ryd( 4d)     0.00008       2.77870
   351    O    8  dx2y2  Ryd( 5d)     0.00005       6.52104
   352    O    8  dz2    Ryd( 3d)     0.00283       1.61262
   353    O    8  dz2    Ryd( 4d)     0.00009       2.47317
   354    O    8  dz2    Ryd( 5d)     0.00001       6.48220
   355    O    8  f(0)   Ryd( 4f)     0.00015       3.08387
   356    O    8  f(0)   Ryd( 5f)     0.00001       5.49575
   357    O    8  f(C1)  Ryd( 4f)     0.00014       3.64431
   358    O    8  f(C1)  Ryd( 5f)     0.00001       5.78334
   359    O    8  f(S1)  Ryd( 4f)     0.00004       3.11480
   360    O    8  f(S1)  Ryd( 5f)     0.00001       5.56682
   361    O    8  f(C2)  Ryd( 4f)     0.00018       3.08036
   362    O    8  f(C2)  Ryd( 5f)     0.00001       5.65238
   363    O    8  f(S2)  Ryd( 4f)     0.00021       3.09800
   364    O    8  f(S2)  Ryd( 5f)     0.00001       5.66612
   365    O    8  f(C3)  Ryd( 4f)     0.00054       3.60442
   366    O    8  f(C3)  Ryd( 5f)     0.00003       5.94010
   367    O    8  f(S3)  Ryd( 4f)     0.00035       4.02289
   368    O    8  f(S3)  Ryd( 5f)     0.00001       6.02477
 
   369    O    9  S      Cor( 1S)     1.99977     -19.46862
   370    O    9  S      Val( 2S)     1.67297      -1.04925
   371    O    9  S      Ryd( 3S)     0.00052       1.65103
   372    O    9  S      Ryd( 4S)     0.00007       3.15184
   373    O    9  S      Ryd( 5S)     0.00001       8.66571
   374    O    9  px     Val( 2p)     1.69845      -0.41193
   375    O    9  px     Ryd( 3p)     0.00064       1.18585
   376    O    9  px     Ryd( 4p)     0.00010       1.54926
   377    O    9  px     Ryd( 5p)     0.00006       4.34972
   378    O    9  py     Val( 2p)     1.46976      -0.38613
   379    O    9  py     Ryd( 3p)     0.00094       1.11575
   380    O    9  py     Ryd( 4p)     0.00010       1.25544
   381    O    9  py     Ryd( 5p)     0.00005       4.60191
   382    O    9  pz     Val( 2p)     1.83523      -0.42618
   383    O    9  pz     Ryd( 3p)     0.00110       0.84911
   384    O    9  pz     Ryd( 4p)     0.00000       0.95169
   385    O    9  pz     Ryd( 5p)     0.00001       3.71818
   386    O    9  dxy    Ryd( 3d)     0.00409       1.75057
   387    O    9  dxy    Ryd( 4d)     0.00007       2.15163
   388    O    9  dxy    Ryd( 5d)     0.00006       6.80136
   389    O    9  dxz    Ryd( 3d)     0.00331       1.16003
   390    O    9  dxz    Ryd( 4d)     0.00002       1.87471
   391    O    9  dxz    Ryd( 5d)     0.00002       6.38994
   392    O    9  dyz    Ryd( 3d)     0.00181       1.34456
   393    O    9  dyz    Ryd( 4d)     0.00007       1.80971
   394    O    9  dyz    Ryd( 5d)     0.00003       6.45123
   395    O    9  dx2y2  Ryd( 3d)     0.00634       2.00939
   396    O    9  dx2y2  Ryd( 4d)     0.00012       2.62540
   397    O    9  dx2y2  Ryd( 5d)     0.00004       6.79634
   398    O    9  dz2    Ryd( 3d)     0.00301       1.52150
   399    O    9  dz2    Ryd( 4d)     0.00013       2.40132
   400    O    9  dz2    Ryd( 5d)     0.00001       6.67111
   401    O    9  f(0)   Ryd( 4f)     0.00057       2.74673
   402    O    9  f(0)   Ryd( 5f)     0.00001       5.95078
   403    O    9  f(C1)  Ryd( 4f)     0.00014       3.07125
   404    O    9  f(C1)  Ryd( 5f)     0.00001       6.18902
   405    O    9  f(S1)  Ryd( 4f)     0.00025       3.57076
   406    O    9  f(S1)  Ryd( 5f)     0.00001       6.15022
   407    O    9  f(C2)  Ryd( 4f)     0.00009       2.83035
   408    O    9  f(C2)  Ryd( 5f)     0.00001       5.96680
   409    O    9  f(S2)  Ryd( 4f)     0.00006       2.79156
   410    O    9  f(S2)  Ryd( 5f)     0.00001       6.10812
   411    O    9  f(C3)  Ryd( 4f)     0.00004       3.73713
   412    O    9  f(C3)  Ryd( 5f)     0.00002       6.43036
   413    O    9  f(S3)  Ryd( 4f)     0.00017       4.41710
   414    O    9  f(S3)  Ryd( 5f)     0.00006       6.58771
 
   415   Br   10  S      Cor( 1S)     2.00000    -483.12464
   416   Br   10  S      Cor( 2S)     2.00000     -62.53589
   417   Br   10  S      Cor( 3S)     1.99974     -11.76835
   418   Br   10  S      Val( 4S)     1.85270      -1.09853
   419   Br   10  S      Ryd( 5S)     0.00228       1.15016
   420   Br   10  S      Ryd( 6S)     0.00007       1.51422
   421   Br   10  S      Ryd( 7S)     0.00001       3.84730
   422   Br   10  px     Cor( 2p)     2.00000     -57.01412
   423   Br   10  px     Cor( 3p)     1.99989      -7.03121
   424   Br   10  px     Val( 4p)     1.31308      -0.28177
   425   Br   10  px     Ryd( 5p)     0.00243       0.58729
   426   Br   10  px     Ryd( 6p)     0.00005       0.60595
   427   Br   10  px     Ryd( 7p)     0.00002       2.20380
   428   Br   10  py     Cor( 2p)     2.00000     -57.01281
   429   Br   10  py     Cor( 3p)     1.99996      -7.02756
   430   Br   10  py     Val( 4p)     1.80927      -0.34183
   431   Br   10  py     Ryd( 5p)     0.00154       0.59504
   432   Br   10  py     Ryd( 6p)     0.00008       0.84666
   433   Br   10  py     Ryd( 7p)     0.00003       2.00734
   434   Br   10  pz     Cor( 2p)     2.00000     -57.01246
   435   Br   10  pz     Cor( 3p)     1.99999      -7.02661
   436   Br   10  pz     Val( 4p)     1.93877      -0.35916
   437   Br   10  pz     Ryd( 6p)     0.00177       0.53510
   438   Br   10  pz     Ryd( 5p)     0.00002       0.53066
   439   Br   10  pz     Ryd( 7p)     0.00001       1.82160
   440   Br   10  dxy    Cor( 3d)     1.99983      -2.89128
   441   Br   10  dxy    Ryd( 6d)     0.00100       2.16654
   442   Br   10  dxy    Ryd( 4d)     0.00011       1.00506
   443   Br   10  dxy    Ryd( 5d)     0.00002       2.00620
   444   Br   10  dxz    Cor( 3d)     1.99995      -2.88986
   445   Br   10  dxz    Ryd( 5d)     0.00071       1.44781
   446   Br   10  dxz    Ryd( 4d)     0.00024       0.79566
   447   Br   10  dxz    Ryd( 6d)     0.00001       1.97319
   448   Br   10  dyz    Cor( 3d)     1.99999      -2.88490
   449   Br   10  dyz    Ryd( 5d)     0.00018       1.20246
   450   Br   10  dyz    Ryd( 4d)     0.00006       0.69784
   451   Br   10  dyz    Ryd( 6d)     0.00001       1.75572
   452   Br   10  dx2y2  Cor( 3d)     1.99987      -2.89126
   453   Br   10  dx2y2  Ryd( 6d)     0.00070       2.16585
   454   Br   10  dx2y2  Ryd( 4d)     0.00016       0.96318
   455   Br   10  dx2y2  Ryd( 5d)     0.00002       2.06759
   456   Br   10  dz2    Cor( 3d)     1.99992      -2.88609
   457   Br   10  dz2    Ryd( 5d)     0.00053       1.33064
   458   Br   10  dz2    Ryd( 4d)     0.00003       1.14620
   459   Br   10  dz2    Ryd( 6d)     0.00001       1.87830
   460   Br   10  f(0)   Ryd( 4f)     0.00009       1.43912
   461   Br   10  f(0)   Ryd( 5f)     0.00003       1.69036
   462   Br   10  f(C1)  Ryd( 4f)     0.00004       1.61351
   463   Br   10  f(C1)  Ryd( 5f)     0.00004       1.88489
   464   Br   10  f(S1)  Ryd( 4f)     0.00003       1.48986
   465   Br   10  f(S1)  Ryd( 5f)     0.00003       1.81815
   466   Br   10  f(C2)  Ryd( 4f)     0.00005       1.53399
   467   Br   10  f(C2)  Ryd( 5f)     0.00002       1.70937
   468   Br   10  f(S2)  Ryd( 4f)     0.00008       1.50959
   469   Br   10  f(S2)  Ryd( 5f)     0.00003       1.70212
   470   Br   10  f(C3)  Ryd( 4f)     0.00016       1.63477
   471   Br   10  f(C3)  Ryd( 5f)     0.00006       1.92455
   472   Br   10  f(S3)  Ryd( 4f)     0.00005       1.80063
   473   Br   10  f(S3)  Ryd( 5f)     0.00006       1.94531
 
   474    H   11  S      Val( 1S)     0.76059       0.06003
   475    H   11  S      Ryd( 4S)     0.00048       1.96675
   476    H   11  S      Ryd( 2S)     0.00012       0.60107
   477    H   11  S      Ryd( 3S)     0.00005       1.72967
   478    H   11  px     Ryd( 2p)     0.00065       0.88043
   479    H   11  px     Ryd( 3p)     0.00023       3.97628
   480    H   11  px     Ryd( 4p)     0.00005       4.57855
   481    H   11  py     Ryd( 2p)     0.00054       0.90612
   482    H   11  py     Ryd( 4p)     0.00007       4.05776
   483    H   11  py     Ryd( 3p)     0.00007       2.64716
   484    H   11  pz     Ryd( 2p)     0.00013       0.57035
   485    H   11  pz     Ryd( 4p)     0.00001       3.87542
   486    H   11  pz     Ryd( 3p)     0.00009       1.82497
   487    H   11  dxy    Ryd( 3d)     0.00006       2.35256
   488    H   11  dxy    Ryd( 4d)     0.00006       4.44801
   489    H   11  dxz    Ryd( 3d)     0.00001       1.48332
   490    H   11  dxz    Ryd( 4d)     0.00001       4.09378
   491    H   11  dyz    Ryd( 3d)     0.00001       1.30879
   492    H   11  dyz    Ryd( 4d)     0.00000       3.85176
   493    H   11  dx2y2  Ryd( 3d)     0.00006       2.07358
   494    H   11  dx2y2  Ryd( 4d)     0.00003       4.41188
   495    H   11  dz2    Ryd( 3d)     0.00003       1.92230
   496    H   11  dz2    Ryd( 4d)     0.00004       4.01235
 
   497    H   12  S      Val( 1S)     0.77948       0.04374
   498    H   12  S      Ryd( 4S)     0.00033       2.02141
   499    H   12  S      Ryd( 2S)     0.00014       0.69219
   500    H   12  S      Ryd( 3S)     0.00001       1.29172
   501    H   12  px     Ryd( 2p)     0.00028       1.12198
   502    H   12  px     Ryd( 4p)     0.00003       3.84883
   503    H   12  px     Ryd( 3p)     0.00009       2.11788
   504    H   12  py     Ryd( 2p)     0.00089       1.08946
   505    H   12  py     Ryd( 4p)     0.00014       4.52387
   506    H   12  py     Ryd( 3p)     0.00003       4.22322
   507    H   12  pz     Ryd( 2p)     0.00014       0.89441
   508    H   12  pz     Ryd( 4p)     0.00006       3.66142
   509    H   12  pz     Ryd( 3p)     0.00004       1.70304
   510    H   12  dxy    Ryd( 3d)     0.00002       2.10280
   511    H   12  dxy    Ryd( 4d)     0.00002       4.18813
   512    H   12  dxz    Ryd( 3d)     0.00002       1.33693
   513    H   12  dxz    Ryd( 4d)     0.00000       3.64194
   514    H   12  dyz    Ryd( 3d)     0.00000       1.69542
   515    H   12  dyz    Ryd( 4d)     0.00002       3.97005
   516    H   12  dx2y2  Ryd( 3d)     0.00010       2.46187
   517    H   12  dx2y2  Ryd( 4d)     0.00007       4.05992
   518    H   12  dz2    Ryd( 3d)     0.00002       1.88713
   519    H   12  dz2    Ryd( 4d)     0.00003       3.80651
 
   520    H   13  S      Val( 1S)     0.77017       0.04168
   521    H   13  S      Ryd( 4S)     0.00040       2.04025
   522    H   13  S      Ryd( 2S)     0.00012       0.72096
   523    H   13  S      Ryd( 3S)     0.00002       1.44268
   524    H   13  px     Ryd( 2p)     0.00087       1.18881
   525    H   13  px     Ryd( 3p)     0.00016       3.95327
   526    H   13  px     Ryd( 4p)     0.00005       4.26675
   527    H   13  py     Ryd( 2p)     0.00048       1.05885
   528    H   13  py     Ryd( 4p)     0.00010       3.97415
   529    H   13  py     Ryd( 3p)     0.00003       3.35456
   530    H   13  pz     Ryd( 2p)     0.00019       0.78518
   531    H   13  pz     Ryd( 4p)     0.00002       3.77975
   532    H   13  pz     Ryd( 3p)     0.00003       1.98921
   533    H   13  dxy    Ryd( 3d)     0.00008       2.62870
   534    H   13  dxy    Ryd( 4d)     0.00008       4.19045
   535    H   13  dxz    Ryd( 3d)     0.00001       1.62010
   536    H   13  dxz    Ryd( 4d)     0.00001       3.93462
   537    H   13  dyz    Ryd( 3d)     0.00001       1.49924
   538    H   13  dyz    Ryd( 4d)     0.00001       3.80225
   539    H   13  dx2y2  Ryd( 3d)     0.00003       2.17936
   540    H   13  dx2y2  Ryd( 4d)     0.00001       4.32638
   541    H   13  dz2    Ryd( 3d)     0.00001       2.29899
   542    H   13  dz2    Ryd( 4d)     0.00003       3.93112
 
   543    H   14  S      Val( 1S)     0.75255       0.05324
   544    H   14  S      Ryd( 3S)     0.00054       1.96792
   545    H   14  S      Ryd( 2S)     0.00012       0.49333
   546    H   14  S      Ryd( 4S)     0.00004       2.11053
   547    H   14  px     Ryd( 2p)     0.00082       0.91673
   548    H   14  px     Ryd( 4p)     0.00003       4.20316
   549    H   14  px     Ryd( 3p)     0.00006       2.83348
   550    H   14  py     Ryd( 2p)     0.00070       1.08314
   551    H   14  py     Ryd( 3p)     0.00026       4.02755
   552    H   14  py     Ryd( 4p)     0.00005       5.00104
   553    H   14  pz     Ryd( 2p)     0.00028       0.59712
   554    H   14  pz     Ryd( 4p)     0.00002       3.92241
   555    H   14  pz     Ryd( 3p)     0.00004       2.09024
   556    H   14  dxy    Ryd( 3d)     0.00002       2.11856
   557    H   14  dxy    Ryd( 4d)     0.00002       4.65968
   558    H   14  dxz    Ryd( 3d)     0.00004       1.57097
   559    H   14  dxz    Ryd( 4d)     0.00001       3.71169
   560    H   14  dyz    Ryd( 3d)     0.00001       1.63932
   561    H   14  dyz    Ryd( 4d)     0.00002       4.11070
   562    H   14  dx2y2  Ryd( 3d)     0.00010       2.50940
   563    H   14  dx2y2  Ryd( 4d)     0.00004       4.59915
   564    H   14  dz2    Ryd( 3d)     0.00003       2.38693
   565    H   14  dz2    Ryd( 4d)     0.00002       4.30492
 
   566    H   15  S      Val( 1S)     0.49333       0.12070
   567    H   15  S      Ryd( 4S)     0.00102       1.80301
   568    H   15  S      Ryd( 2S)     0.00017       0.86576
   569    H   15  S      Ryd( 3S)     0.00013       1.40865
   570    H   15  px     Ryd( 2p)     0.00019       2.51025
   571    H   15  px     Ryd( 4p)     0.00024       3.64839
   572    H   15  px     Ryd( 3p)     0.00004       2.85980
   573    H   15  py     Ryd( 2p)     0.00032       1.84922
   574    H   15  py     Ryd( 4p)     0.00013       3.35947
   575    H   15  py     Ryd( 3p)     0.00001       3.14111
   576    H   15  pz     Ryd( 2p)     0.00053       1.50658
   577    H   15  pz     Ryd( 4p)     0.00005       2.88818
   578    H   15  pz     Ryd( 3p)     0.00001       2.65941
   579    H   15  dxy    Ryd( 3d)     0.00009       1.66884
   580    H   15  dxy    Ryd( 4d)     0.00001       4.61527
   581    H   15  dxz    Ryd( 3d)     0.00002       1.12120
   582    H   15  dxz    Ryd( 4d)     0.00000       4.12825
   583    H   15  dyz    Ryd( 3d)     0.00013       1.12653
   584    H   15  dyz    Ryd( 4d)     0.00000       3.92076
   585    H   15  dx2y2  Ryd( 3d)     0.00002       1.45712
   586    H   15  dx2y2  Ryd( 4d)     0.00001       4.41693
   587    H   15  dz2    Ryd( 3d)     0.00011       1.63174
   588    H   15  dz2    Ryd( 4d)     0.00000       4.05601

 WARNING:  1 low occupancy (<1.9990e) core orbital  found on  C    1
           1 low occupancy (<1.9990e) core orbital  found on  C    5

 WARNING:  Population inversion found on atom  C    1
           Population inversion found on atom  C    2
           Population inversion found on atom  C    3
           Population inversion found on atom  C    4
           Population inversion found on atom  C    5
           Population inversion found on atom  C    6
           Population inversion found on atom  C    7
           Population inversion found on atom  O    8
           Population inversion found on atom  O    9
           Population inversion found on atom Br   10
           Population inversion found on atom  H   11
           Population inversion found on atom  H   12
           Population inversion found on atom  H   13
           Population inversion found on atom  H   14
           Population inversion found on atom  H   15


 Summary of Natural Population Analysis:                  
                                                          
                                       Natural Population 
                Natural  -----------------------------------------------
    Atom  No    Charge         Core      Valence    Rydberg      Total
 -----------------------------------------------------------------------
      C    1   -0.15914      1.99899     4.13408    0.02607     6.15914
      C    2   -0.15503      1.99921     4.13935    0.01648     6.15503
      C    3   -0.19200      1.99926     4.17606    0.01668     6.19200
      C    4   -0.21018      1.99912     4.18887    0.02219     6.21018
      C    5   -0.09554      1.99868     4.06622    0.03065     6.09554
      C    6   -0.19775      1.99904     4.17644    0.02228     6.19775
      C    7    0.80400      1.99938     3.16362    0.03299     5.19600
      O    8   -0.59747      1.99977     6.56636    0.03134     8.59747
      O    9   -0.70038      1.99977     6.67641    0.02419     8.70038
     Br   10    0.07420     27.99914     6.91382    0.01284    34.92580
      H   11    0.23659      0.00000     0.76059    0.00282     0.76341
      H   12    0.21803      0.00000     0.77948    0.00250     0.78197
      H   13    0.22706      0.00000     0.77017    0.00276     0.77294
      H   14    0.24418      0.00000     0.75255    0.00327     0.75582
      H   15    0.50344      0.00000     0.49333    0.00323     0.49656
 =======================================================================
   * Total *    0.00000     45.99236    51.75735    0.25028    98.00000

                                 Natural Population      
 --------------------------------------------------------
   Core                      45.99236 ( 99.9834% of  46)
   Valence                   51.75735 ( 99.5334% of  52)
   Natural Minimal Basis     97.74972 ( 99.7446% of  98)
   Natural Rydberg Basis      0.25028 (  0.2554% of  98)
 --------------------------------------------------------

    Atom  No          Natural Electron Configuration
 ----------------------------------------------------------------------------
      C    1      [core]2S( 0.93)2p( 3.20)4p( 0.01)4f( 0.01)
      C    2      [core]2S( 0.97)2p( 3.17)
      C    3      [core]2S( 0.97)2p( 3.21)4p( 0.01)
      C    4      [core]2S( 0.97)2p( 3.22)4p( 0.01)
      C    5      [core]2S( 0.96)2p( 3.10)4p( 0.01)4f( 0.01)
      C    6      [core]2S( 0.96)2p( 3.21)4p( 0.01)
      C    7      [core]2S( 0.79)2p( 2.37)4p( 0.01)5p( 0.01)
      O    8      [core]2S( 1.70)2p( 4.86)3d( 0.02)
      O    9      [core]2S( 1.67)2p( 5.00)3d( 0.02)
     Br   10      [core]4S( 1.85)4p( 5.06)
      H   11            1S( 0.76)
      H   12            1S( 0.78)
      H   13            1S( 0.77)
      H   14            1S( 0.75)
      H   15            1S( 0.49)


 NATURAL BOND ORBITAL ANALYSIS:

                       Occupancies       Lewis Structure    Low   High
           Occ.    -------------------  -----------------   occ   occ
  Cycle   Thresh.   Lewis   Non-Lewis     CR  BD  3C  LP    (L)   (NL)   Dev
 =============================================================================
   1(1)    1.90    94.01076   3.98924     23  17   0   9     8      6    0.45
   2(2)    1.90    94.01076   3.98924     23  17   0   9     8      6    0.45
   3(1)    1.80    94.36291   3.63709     23  16   0  10     3      4    0.45
   4(2)    1.80    94.36291   3.63709     23  16   0  10     3      4    0.45
   5(1)    1.70    94.36291   3.63709     23  16   0  10     3      4    0.45
   6(2)    1.70    94.36291   3.63709     23  16   0  10     3      4    0.45
   7(1)    1.60    96.19797   1.80203     23  19   0   7     0      4    0.45
   8(2)    1.60    96.20429   1.79571     23  19   0   7     0      4    0.42
   9(3)    1.60    96.19797   1.80203     23  19   0   7     0      4    0.45
  10(4)    1.60    96.20429   1.79571     23  19   0   7     0      4    0.42
  11(1)    1.50    95.71599   2.28401     23  18   0   8     0      5    0.73
  12(2)    1.50    95.71599   2.28401     23  18   0   8     0      5    0.73
  13(1)    1.60    96.20429   1.79571     23  19   0   7     0      4    0.42
 -----------------------------------------------------------------------------

 Structure accepted: RESONANCE keyword permits strongly delocalized structure

 WARNING:  1 low occupancy (<1.9990e) core orbital  found on  C    1
           1 low occupancy (<1.9990e) core orbital  found on  C    5

 --------------------------------------------------------
   Core                     45.99238 ( 99.983% of  46)
   Valence Lewis            50.21190 ( 96.561% of  52)
  ==================       ============================
   Total Lewis              96.20429 ( 98.168% of  98)
  -----------------------------------------------------
   Valence non-Lewis         1.65666 (  1.690% of  98)
   Rydberg non-Lewis         0.13905 (  0.142% of  98)
  ==================       ============================
   Total non-Lewis           1.79571 (  1.832% of  98)
 --------------------------------------------------------


       (Occupancy)   Bond orbital/ Coefficients/ Hybrids
 ---------------------------------------------------------------------------------
     1. (1.97591) BD ( 1) C   1 - C   2  
                ( 51.42%)   0.7171* C   1 s( 35.55%)p 1.81( 64.33%)d 0.00(  0.07%)
                                                  f 0.00(  0.05%)
                                           -0.0001  0.5961 -0.0086  0.0008 -0.0005
                                            0.0659 -0.0175 -0.0007  0.0001  0.7991
                                           -0.0086  0.0035 -0.0008  0.0001  0.0000
                                            0.0000  0.0000  0.0014 -0.0024 -0.0033
                                            0.0000  0.0000  0.0000  0.0000  0.0000
                                            0.0000 -0.0174 -0.0078  0.0005 -0.0178
                                           -0.0001  0.0024  0.0000  0.0000 -0.0005
                                            0.0003 -0.0137 -0.0127  0.0000  0.0000
[...]
 ! D26   D(4,5,6,14)           179.9998         -DE/DX =    0.0                 !
 ! D27   D(10,5,6,1)           179.9999         -DE/DX =    0.0                 !
 ! D28   D(10,5,6,14)           -0.0002         -DE/DX =    0.0                 !
 ! D29   D(1,7,9,15)           179.9998         -DE/DX =    0.0                 !
 ! D30   D(8,7,9,15)            -0.0003         -DE/DX =    0.0                 !
 --------------------------------------------------------------------------------
 GradGradGradGradGradGradGradGradGradGradGradGradGradGradGradGradGradGrad


 ----------------------------------------------------------------------

 Electric dipole moment (input orientation):
 (Debye = 10**-18 statcoulomb cm , SI units = C m)
                  (au)            (Debye)         (10**-30 SI)
   Tot        0.202622D+00      0.515013D+00      0.171790D+01
   x          0.199450D+00      0.506950D+00      0.169100D+01
   y         -0.325901D-01     -0.828357D-01     -0.276310D+00
   z          0.146052D-01      0.371226D-01      0.123828D+00

 Dipole polarizability, Alpha (input orientation).
 (esu units = cm**3 , SI units = C**2 m**2 J**-1)
 Alpha(0;0):
               (au)            (10**-24 esu)      (10**-40 SI)
   iso        0.110668D+03      0.163993D+02      0.182466D+02
   aniso      0.739667D+02      0.109607D+02      0.121955D+02
   xx         0.136966D+03      0.202963D+02      0.225827D+02
   yx         0.121342D+02      0.179810D+01      0.200066D+01
   yy         0.121314D+03      0.179769D+02      0.200020D+02
   zx         0.132606D+02      0.196501D+01      0.218637D+01
   zy         0.203870D+02      0.302105D+01      0.336137D+01
   zz         0.737221D+02      0.109245D+02      0.121551D+02

 ----------------------------------------------------------------------

 Dipole orientation:
     6          0.06561135         -0.53905007         -0.59511665
     6          0.43922341         -2.64588023          0.92825697
     6          0.39297234         -2.38449681          3.53085800
     6         -0.02382332         -0.03354893          4.61935655
     6         -0.39296124          2.04806822          3.07204807
     6         -0.35406242          1.82811720          0.46654453
     6          0.12940478         -0.89941344         -3.38300627
     8          0.48221010         -2.88927518         -4.41391950
     8         -0.25303054          1.25701370         -4.67324541
    35         -0.96192485          5.25734957          4.55013972
     1          0.76036334         -4.45725928          0.04173379
     1          0.68148877         -4.01148780          4.73158457
     1         -0.06265533          0.18588028          6.64890757
     1         -0.64342307          3.45982862         -0.72248466
     1         -0.17852343          0.83648393         -6.44856647

 Electric dipole moment (dipole orientation):
 (Debye = 10**-18 statcoulomb cm , SI units = C m)
                  (au)            (Debye)         (10**-30 SI)
   Tot        0.202622D+00      0.515013D+00      0.171790D+01
   x          0.000000D+00      0.000000D+00      0.000000D+00
   y          0.000000D+00      0.000000D+00      0.000000D+00
   z          0.202622D+00      0.515013D+00      0.171790D+01

 Dipole polarizability, Alpha (dipole orientation).
 (esu units = cm**3 , SI units = C**2 m**2 J**-1)
 Alpha(0;0):
               (au)            (10**-24 esu)      (10**-40 SI)
   iso        0.110668D+03      0.163993D+02      0.182466D+02
   aniso      0.739667D+02      0.109607D+02      0.121955D+02
   xx         0.672514D+02      0.996563D+01      0.110883D+02
   yx        -0.116605D+02     -0.172791D+01     -0.192256D+01
   yy         0.130952D+03      0.194051D+02      0.215910D+02
   zx        -0.287663D+01     -0.426272D+00     -0.474292D+00
   zy         0.162386D+02      0.240631D+01      0.267738D+01
   zz         0.133800D+03      0.198271D+02      0.220606D+02

 ----------------------------------------------------------------------
 Unable to Open any file for archive entry.
 1\1\GINC-AE30\Freq\RM062X\Aug-CC-pVTZ\C7H5Br1O2\AKJ\27-Apr-2023\0\\#N 
 Geom=AllCheck Guess=TCheck SCRF=Check GenChk RM062X/Aug-CC-pVTZ Freq\\
 CYH-197-A_eq00002\\0,1\C,-0.3487773316,-0.2225895552,-0.1027569725\C,0
 .2991132897,-1.4110360535,-0.4185823017\C,1.6728611141,-1.5011874689,-
 0.2729706234\C,2.4023544669,-0.4123579065,0.1857526458\C,1.7402537877,
 0.7654552326,0.4961884865\C,0.3678576174,0.8766751348,0.3578223014\C,-
 1.825882618,-0.1664106291,-0.2729984684\O,-2.5004198516,-1.0786745471,
 -0.6654596954\O,-2.3489084851,1.0271156366,0.0605368015\Br,2.732013368
 2,2.2524834218,1.1220914689\H,-0.2878762685,-2.245894315,-0.7738503512
 \H,2.1858534054,-2.4210296392,-0.5159362049\H,3.4747037904,-0.47482051
 61,0.3020707322\H,-0.1387156833,1.7978933883,0.6020755864\H,-3.3027306
 217,0.9668778163,-0.0817833953\\Version=ES64L-G16RevC.01\State=1-A\HF=
 -2994.462073\RMSD=1.784e-09\RMSF=1.486e-05\ZeroPoint=0.1063692\Thermal
 =0.1148666\ETot=-2994.3472064\HTot=-2994.3462622\GTot=-2994.3910398\Di
 pole=0.1994496,-0.0325901,0.0146052\DipoleDeriv=-0.516141,-0.0202111,-
 0.0684703,0.0844166,0.0149181,0.0273019,-0.0333642,0.0139084,-0.033852
 7,0.018113,0.0888327,0.0424552,-0.0969922,-0.0668408,-0.0077681,-0.019
 8965,0.0160212,-0.0778641,-0.0455993,-0.1014491,-0.0252532,-0.1192666,
 0.0414482,0.036969,-0.0312309,0.0392493,-0.1050647,-0.0370001,-0.12532
 11,-0.038722,-0.0875886,-0.1587775,-0.043352,-0.0260614,-0.0481825,-0.
 0824919,0.235683,0.5652093,0.228553,0.5688732,0.6248634,0.3053841,0.22
 97818,0.304915,0.0634741,-0.0713352,-0.1981049,-0.070259,-0.0753322,-0
 .1833265,-0.0571484,-0.0290634,-0.072864,-0.0699127,2.0985786,-0.00744
 28,0.2236728,-0.1926242,1.5022049,0.3680719,0.1615356,0.3917755,0.4839
 524,-1.1807257,-0.3693732,-0.2281957,-0.2439028,-0.8746453,-0.2017851,
 -0.1860936,-0.2178463,-0.4632663,-0.8758067,0.4330389,0.0786072,0.4791
 901,-1.0027464,-0.156089,0.0940936,-0.1619969,-0.3970774,-0.2211315,-0
 .2150071,-0.0948994,-0.2383369,-0.3706622,-0.1403323,-0.1027274,-0.137
 3459,-0.1025892,0.0976791,-0.0325408,-0.0148808,-0.0223084,0.0564989,-
 0.0270587,-0.0114474,-0.028369,0.1176477,0.0268418,0.0382154,-0.000521
 4,0.0440274,-0.0230713,-0.0460864,0.0014286,-0.0468303,0.1155491,0.003
 006,0.0017065,-0.0147774,-0.0116461,0.0946128,-0.0109868,-0.0192575,-0
 .0092773,0.1173362,0.1247584,0.0137856,0.0049128,0.0223871,0.0509494,-
 0.0211459,0.0077989,-0.0222474,0.1160464,0.3430797,-0.0713384,-0.02222
 18,-0.1108963,0.2945743,-0.0259741,-0.0354961,-0.0209098,0.3181132\Pol
 ar=136.9664909,12.1342039,121.314372,13.2605722,20.3870332,73.7221145\
 Quadrupole=2.2995633,0.0472692,-2.3468325,-7.4751635,-1.9570059,-0.267
 9144\PG=C01 [X(C7H5Br1O2)]\NImag=0\\0.64421632,-0.01646765,0.66636326,
 0.05814056,0.17219702,0.21210085,-0.16352095,0.04599483,0.00307397,0.7
 0946209,0.11171145,-0.27458152,-0.05535738,0.01898552,0.66458509,0.025
 12406,-0.06376996,-0.08515927,0.07882731,0.17728598,0.21303649,-0.0260
 2119,0.08211569,0.02330025,-0.34540337,-0.01896495,-0.04224957,0.68797
 018,0.02848016,0.02823396,0.01070474,0.05360511,-0.12777492,-0.0141751
 2,-0.05768898,0.67576328,0.00530375,0.01757071,0.01377091,-0.01789983,
 -0.02346503,-0.07524164,0.05101943,0.17297700,0.20279367,-0.00229269,-
 0.00061054,0.00017653,-0.02798405,-0.02618130,-0.01319320,-0.18947078,
 -0.12074718,-0.05670850,0.75438774,-0.00182650,-0.07025650,-0.02203835
 ,-0.08004654,0.04468871,0.00258220,-0.04333588,-0.25261202,-0.06917867
 ,-0.02271797,0.60819241,-0.00023146,-0.02188261,-0.01264394,-0.0312667
 7,0.00947765,0.00563086,-0.03073445,-0.07908839,-0.09344114,0.07124186
 ,0.15474614,0.19937078,-0.03322738,-0.08217602,-0.03292413,-0.06225352
 ,0.04031912,0.00631270,0.07658516,0.02436044,0.01702736,-0.17370650,0.
 05999966,0.00619100,0.60590683,-0.01751746,0.04170524,0.00887369,0.038
 34952,-0.02472159,-0.00141043,-0.04004856,-0.05527836,-0.02616544,0.13
 261437,-0.25608301,-0.04720267,-0.07992693,0.50560315,-0.01122905,0.00
 059637,0.00733814,0.00565180,-0.00115832,-0.00555189,-0.00458402,-0.01
 792021,0.00082432,0.03055566,-0.05649840,-0.07985240,0.03543954,0.1192
 9514,0.16413284,-0.17312641,-0.04241244,-0.02823189,0.07183660,-0.0341
 1857,-0.00321319,-0.06352232,-0.02780934,-0.01693749,-0.02121775,0.082
 95780,0.02418241,-0.33033361,-0.00471273,-0.03552180,0.68361394,-0.110
 94543,-0.25450430,-0.07820560,0.01894426,-0.05265812,-0.01776335,-0.02
 893578,-0.01394233,-0.00700561,0.02909602,0.02882894,0.01094300,0.0660
 8334,-0.11264370,-0.00745968,-0.06405049,0.68444439,-0.05122690,-0.069
 43235,-0.09360909,0.01459110,-0.02455615,0.00113863,-0.01731542,-0.006
 86135,-0.00862191,0.00610998,0.01783811,0.01408343,-0.01176728,-0.0165
 2264,-0.07224933,0.04816880,0.17466538,0.20422134,-0.20211409,0.007014
 74,-0.01274756,-0.02410175,0.01713346,0.00239982,0.00425417,0.00301526
 ,0.00055724,0.00242788,0.00071072,0.00069801,0.00297965,-0.00656684,-0
 .00294517,-0.01851600,-0.01096292,-0.00610105,0.75916417,0.01763881,-0
 .09689907,-0.00202005,0.02571924,0.00798104,0.00527910,0.00682789,-0.0
 0480865,-0.00335803,-0.00094095,-0.00511049,-0.00144529,-0.00485398,-0
 .00119622,-0.00396688,-0.02410226,0.00960694,0.00000121,0.16359391,0.7
 9309936,-0.00918262,-0.00338009,-0.08645844,0.00528046,0.00418010,0.00
 413870,0.00183658,-0.00384613,0.00674900,0.00014382,-0.00123393,-0.001
 55764,-0.00237055,-0.00418609,0.00706639,-0.01050951,0.00168329,-0.000
 37284,0.12436607,0.21442797,0.30434873,-0.03683730,-0.04001761,-0.0209
 1282,-0.00044178,-0.00372911,-0.00133423,0.00082112,-0.00088300,-0.000
 08841,-0.00122054,-0.00184673,-0.00079529,-0.00222259,0.00137395,0.000
 41334,-0.00522052,0.00662037,0.00124167,-0.33530958,-0.27203240,-0.123
 99520,0.34335431,-0.02259866,0.00042682,-0.01000837,0.00456806,-0.0061
 1341,-0.00153561,-0.00186483,0.00112076,0.00040659,0.00024993,0.000539
 14,0.00016202,-0.00051573,0.00090669,0.00085897,0.00025126,0.00195055,
 -0.00012950,-0.28045151,-0.46694143,-0.16582202,0.32333816,0.56300098,
 -0.01506794,-0.01223828,0.01559658,0.00144989,-0.00259783,-0.00048004,
 -0.00041790,0.00053226,-0.00067733,-0.00009179,-0.00010637,0.00010418,
 -0.00022075,0.00110083,-0.00150886,-0.00089545,0.00068588,0.00254787,-
 0.12682019,-0.16474414,-0.15127100,0.14816676,0.21907832,0.12594376,-0
 .02623314,0.04259186,0.00940597,-0.00556564,-0.00476955,-0.00247778,-0
 .00207445,0.00152303,0.00030403,-0.00084370,0.00081477,0.00015702,0.00
 148387,0.00196430,0.00094653,-0.00500021,0.00115970,-0.00030603,-0.163
 30542,0.07719075,0.01340832,0.03867717,-0.01423069,-0.00364570,0.65686
 863,0.01469784,-0.00692693,-0.00444672,0.00019758,0.00204983,0.0002806
 6,0.00029572,0.00069609,0.00042504,0.00049194,0.00053553,0.00022076,0.
 00059505,-0.00093206,0.00001905,-0.00099963,-0.00335826,-0.00139926,0.
 05149900,-0.23156442,-0.04905889,-0.00371573,-0.09936710,-0.04383624,-
 0.04458360,0.38294321,0.00004608,-0.00087588,0.01164450,-0.00081116,-0
 .00035515,0.00106573,-0.00010772,0.00058215,-0.00027627,0.00004872,0.0
 0026209,0.00015944,0.00048713,0.00019429,-0.00063420,-0.00103062,-0.00
 112284,-0.00007815,0.00478731,-0.04576985,-0.08045920,-0.00011742,-0.0
 4518223,0.01467857,0.06420186,0.10987020,0.08358972,-0.00301925,0.0045
 9548,0.00057878,0.00040243,-0.00149318,-0.00034536,0.00026233,0.000833
 68,-0.00023677,0.00200598,0.00036114,-0.00012413,-0.06262153,-0.047145
 55,-0.02127143,-0.01831042,-0.03046497,-0.01306022,0.00145522,-0.00145
 701,-0.00032691,-0.00130070,-0.00017752,-0.00020827,-0.00057737,0.0004
 6858,0.00007608,0.07992811,-0.00082632,0.00264135,-0.00073099,-0.00186
 045,-0.00070025,-0.00020017,0.00647956,-0.00017138,-0.00066981,-0.0221
 1047,-0.02976215,-0.01413264,-0.04697755,-0.10001048,-0.03285058,-0.00
 853509,-0.01070352,-0.00597950,0.00201586,-0.00136673,-0.00026428,-0.0
 0120185,0.00002310,-0.00009942,-0.00080269,0.00077577,0.00013858,0.074
 72207,0.13956992,-0.00124041,-0.00003694,0.00433353,-0.00046859,-0.000
 15316,-0.00092486,0.00165759,-0.00139257,0.00404195,-0.00766408,-0.011
 25596,-0.00083553,-0.02121506,-0.03287210,-0.03377277,-0.00570204,-0.0
 0878680,0.00018291,0.00083835,-0.00070885,0.00005947,-0.00055195,0.000
 03172,-0.00019918,-0.00035048,0.00030130,0.00011279,0.03404146,0.05308
 769,0.03202871,0.01266331,0.01059929,0.00458244,-0.14152838,-0.1207422
 8,-0.05337170,-0.00968952,-0.02379808,-0.00983083,-0.00503412,0.001352
 50,-0.00112716,-0.00112179,0.00097467,0.00028349,-0.00106444,0.0035092
 7,0.00026828,0.00050486,0.00168990,0.00115608,-0.00199433,-0.00026737,
 -0.00031719,0.00037797,-0.00131650,-0.00040721,0.00015225,-0.00008533,
 0.00007438,0.14556387,-0.01541329,-0.01644238,-0.00904985,-0.11891497,
 -0.23187308,-0.07923943,0.00361745,0.00741702,0.00136511,0.00165643,0.
 00185152,-0.00162136,0.00084521,-0.00004236,0.00035624,0.00381522,-0.0
 0254313,-0.00239084,-0.00244712,-0.00289832,0.00008868,-0.00027447,0.0
 0225027,0.00079285,0.00004058,0.00088758,0.00026675,-0.00010630,0.0000
 4214,0.00021945,0.12821000,0.24182969,-0.00414561,-0.00571985,0.002198
 54,-0.05275866,-0.07947336,-0.07450378,-0.00063193,-0.00214447,0.00392
 823,-0.00102517,-0.00166027,0.00662735,0.00024004,0.00037284,-0.000625
 81,0.00037094,-0.00242999,0.00527006,-0.00023212,0.00061830,-0.0039185
 9,-0.00031959,0.00079376,0.00000805,0.00004819,0.00009299,0.00014547,0
 .00006734,0.00022213,-0.00056928,0.05810145,0.08824551,0.06479315,-0.0
 0556338,-0.00019172,-0.00171952,-0.00931750,0.02767662,0.00757000,-0.1
 2303800,0.11658754,0.02843183,0.01138722,-0.01577800,-0.00434699,-0.00
 022167,-0.00251478,-0.00182052,-0.00101149,-0.00094556,-0.00033071,0.0
 0075114,0.00152789,0.00057148,-0.00030231,-0.00031356,-0.00014993,-0.0
 0086333,0.00020561,-0.00002246,-0.00009757,-0.00091301,-0.00032500,0.0
 0105930,-0.00061097,0.00046299,0.12659663,0.00017175,0.00241998,-0.001
 63760,-0.00099760,0.00279982,-0.00056072,0.11667575,-0.26493891,-0.060
 68698,0.01315953,-0.01618673,-0.00508514,-0.00248005,-0.00097202,-0.00
 312929,-0.00091600,0.00007891,0.00021336,-0.00034837,0.00007087,-0.000
 11870,0.00015214,0.00004199,0.00001780,0.00005219,-0.00003460,0.000045
 04,0.00000246,-0.00093338,-0.00032902,0.00014759,0.00006006,0.00143442
 ,-0.12527520,0.27731146,-0.00159755,-0.00168413,0.00659656,-0.00205109
 ,0.00310999,0.00487128,0.02846138,-0.06069827,-0.05627844,0.00536250,-
 0.00878954,0.00172671,-0.00180884,-0.00313376,0.00612511,-0.00032081,0
 .00020956,-0.00087722,-0.00005806,0.00012150,0.00032505,0.00000632,-0.
 00004182,0.00003377,-0.00007394,0.00006469,-0.00013670,-0.00001783,-0.
 00044622,-0.00010384,0.00071751,0.00133732,-0.00361814,-0.02924088,0.0
 6806328,0.04575761,0.00097735,-0.00011069,0.00019073,0.00045004,-0.002
 42555,-0.00171299,-0.00992206,0.00293786,-0.00089858,-0.34330626,0.019
 56244,-0.03227916,-0.01073044,-0.00213132,-0.00256060,0.00049332,0.002
 71117,0.00017442,-0.00029592,-0.00003971,0.00007886,0.00000298,0.00008
 237,0.00001365,-0.00003914,-0.00000858,-0.00001609,0.00111271,-0.00062
 027,0.00025315,-0.00045450,0.00025822,0.00005753,0.00062376,-0.0003334
 1,0.00049381,0.36145007,-0.00020516,-0.00146674,-0.00024906,-0.0024015
 6,-0.00292793,-0.00379752,-0.02476240,0.00653992,-0.00258535,0.0166172
 7,-0.05627508,-0.00337386,0.02679149,0.00104190,0.00254260,0.00262862,
 -0.00395509,-0.00308326,-0.00008909,-0.00041289,0.00019096,-0.00001671
 ,0.00025552,0.00004593,0.00004473,0.00016091,0.00003822,0.00063984,0.0
 0019296,0.00098234,-0.00110574,0.00021913,0.00000818,0.00038601,0.0004
 0679,0.00156413,-0.01977610,0.05595070,0.00015904,-0.00023694,-0.00086
 186,-0.00170492,-0.00380060,0.00598023,-0.01019294,0.00096065,0.003815
 12,-0.03326736,-0.00299679,-0.04514402,0.00714396,-0.00115997,0.004211
 08,0.00014671,-0.00307269,0.00522473,0.00006229,0.00019729,-0.00094187
 ,-0.00001960,0.00005860,0.00012943,0.00000180,0.00003139,0.00007484,0.
 00067596,0.00082103,-0.00212861,-0.00040011,0.00018279,-0.00021702,0.0
 0073520,0.00147202,-0.00351954,0.03629564,0.00748810,0.03324729,0.0121
 7129,-0.01338473,-0.00340351,-0.00139881,-0.00322310,-0.00213211,-0.00
 094094,-0.00084245,-0.00025201,-0.00529380,-0.00013898,-0.00156241,-0.
 01043504,0.02560380,0.00677907,-0.11945355,0.11809078,0.02938644,0.001
 91848,-0.00169596,0.00021883,0.00004745,0.00094549,0.00024241,-0.00385
 518,0.00033649,-0.00040499,0.00052870,0.00061068,0.00060703,0.00063787
 ,-0.00081963,-0.00025121,0.00003188,0.00001770,0.00013336,-0.00036744,
 0.00125804,0.00036325,0.12641278,0.01215058,-0.01541387,-0.00484983,-0
 .00341625,-0.00121005,-0.00312787,-0.00055318,0.00026399,0.00041385,-0
 .00034526,0.00179484,-0.00163875,-0.00206226,0.00207207,-0.00081656,0.
 11882978,-0.27018766,-0.06219745,0.00134623,-0.00236645,0.00079978,-0.
 00011317,0.00079220,0.00003922,0.00104808,0.00111307,0.00044368,-0.000
 70567,0.00050764,0.00095664,0.00073908,-0.00068017,-0.00028527,0.00005
 243,-0.00012433,0.00028829,-0.00009083,0.00024382,0.00003920,-0.126798
 62,0.28265665,0.00516441,-0.00811865,0.00161287,-0.00219693,-0.0031031
 1,0.00548614,-0.00015493,0.00037684,-0.00107386,-0.00163163,-0.0016123
 4,0.00579723,-0.00250389,0.00272508,0.00431273,0.02963448,-0.06229210,
 -0.05659147,0.00123964,0.00041035,-0.00394011,-0.00011285,0.00017470,0
 .00067634,-0.00016620,0.00035258,0.00028768,0.00016536,0.00112513,-0.0
 0221397,0.00027177,-0.00048481,0.00032413,0.00014502,0.00028385,-0.000
 84973,-0.00008933,0.00021187,0.00015198,-0.02975316,0.06972320,0.04606
 930,0.00192750,0.00245950,0.00049020,-0.00063540,-0.00017856,-0.000203
 76,0.00018968,0.00042595,0.00020878,0.00016135,-0.00006843,-0.00000249
 ,-0.00008143,-0.00031645,-0.00013683,0.00083288,0.00009024,0.00016694,
 -0.02981281,0.01093387,-0.00067571,0.00194663,-0.00901541,-0.00203762,
 -0.48905006,-0.01816379,-0.06672951,0.00007910,0.00010487,0.00004564,-
 0.00007235,0.00014363,0.00001579,-0.00003469,-0.00002849,-0.00000588,0
 .00000553,-0.00000925,0.00000109,-0.00000370,-0.00008095,-0.00001176,0
 .51454778,0.00094988,-0.00529928,-0.00318166,0.00127326,0.00045637,0.0
 0015223,0.00014250,-0.00050846,-0.00004338,-0.00023184,-0.00014511,-0.
 00007886,-0.00000179,0.00055073,0.00013154,-0.00082612,-0.00041361,-0.
 00016576,0.05453667,0.00280647,0.00653936,-0.00765384,0.00111393,0.001
 32919,-0.06204348,-0.04697861,-0.01853505,-0.00007303,-0.00010499,-0.0
 0004373,0.00009299,-0.00007796,-0.00007491,0.00010668,0.00000010,0.000
 03498,-0.00001562,0.00002609,0.00001591,0.00004048,0.00053825,0.000227
 41,0.01370327,0.04803609,-0.00001636,-0.00298841,0.00354012,0.00028342
 ,-0.00003361,0.00051341,0.00011365,-0.00000713,-0.00031261,-0.00005733
 ,-0.00005792,-0.00002531,-0.00003124,0.00009125,0.00018465,-0.00014055
 ,-0.00004847,-0.00026897,0.01395543,0.00095738,0.00623234,-0.00158074,
 0.00115487,-0.00558215,-0.08145359,-0.01291757,-0.03017423,-0.00001406
 ,-0.00002096,-0.00001135,-0.00000120,-0.00006842,0.00015764,0.00003948
 ,0.00001768,-0.00005247,-0.00000104,0.00001672,-0.00002181,0.00002899,
 0.00021187,-0.00004927,0.06887512,0.01369272,0.02587002\\0.00005162,-0
 .00001954,0.00000024,-0.00003708,0.00000618,-0.00000261,0.00002200,0.0
 0001053,0.00000633,-0.00001400,-0.00002208,-0.00000918,0.00001960,0.00
 001870,0.00000870,-0.00003092,-0.00000721,-0.00000651,-0.00001530,0.00
 002861,0.00000725,-0.00000363,-0.00000531,-0.00000213,0.00002048,-0.00
 000264,0.00000196,-0.00000127,-0.00001397,-0.00000488,0.00000211,0.000
 00235,0.00000098,-0.00000437,0.00000098,-0.00000017,-0.00000006,-0.000
 00340,-0.00000112,0.00000725,0.00000125,0.00000145,-0.00001643,0.00000
 557,-0.00000031\\\@
 The archive entry for this job was punched.


 THERE IS MORE TO LIFE THAN INCREASING ITS SPEED.

                                       -- GANDHI
 Job cpu time:       0 days 11 hours 39 minutes 13.7 seconds.
 Elapsed time:       0 days  0 hours 34 minutes 58.6 seconds.
 File lengths (MBytes):  RWF=    433 Int=      0 D2E=      0 Chk=     28 Scr=      1
 Normal termination of Gaussian 16 at Thu Apr 27 12:08:53 2023.
