 Entering Gaussian System, Link 0=g16
 Initial command:
 /usr/local/gaussian16c01/g16/l1.exe "/scr/akj/Gau-162689.inp" -scrdir="/scr/akj/"
 Entering Link 1 = /usr/local/gaussian16c01/g16/l1.exe PID=    162690.
  
 Copyright (c) 1988-2019, Gaussian, Inc.  All Rights Reserved.
  
 This is part of the Gaussian(R) 16 program.  It is based on
 the Gaussian(R) 09 system (copyright 2009, Gaussian, Inc.),
 the Gaussian(R) 03 system (copyright 2003, Gaussian, Inc.),
 the Gaussian(R) 98 system (copyright 1998, Gaussian, Inc.),
 the Gaussian(R) 94 system (copyright 1995, Gaussian, Inc.),
 the Gaussian 92(TM) system (copyright 1992, Gaussian, Inc.),
 the Gaussian 90(TM) system (copyright 1990, Gaussian, Inc.),
 the Gaussian 88(TM) system (copyright 1988, Gaussian, Inc.),
 the Gaussian 86(TM) system (copyright 1986, Carnegie Mellon
 University), and the Gaussian 82(TM) system (copyright 1983,
 Carnegie Mellon University). Gaussian is a federally registered
 trademark of Gaussian, Inc.
  
 This software contains proprietary and confidential information,
 including trade secrets, belonging to Gaussian, Inc.
  
 This software is provided under written license and may be
 used, copied, transmitted, or stored only in accord with that
 written license.
  
 The following legend is applicable only to US Government
 contracts under FAR:
  
                    RESTRICTED RIGHTS LEGEND
  
 Use, reproduction and disclosure by the US Government is
 subject to restrictions as set forth in subparagraphs (a)
 and (c) of the Commercial Computer Software - Restricted
 Rights clause in FAR 52.227-19.
  
 Gaussian, Inc.
 340 Quinnipiac St., Bldg. 40, Wallingford CT 06492
  
  
 ---------------------------------------------------------------
 Warning -- This program may not be used in any manner that
 competes with the business of Gaussian, Inc. or will provide
 assistance to any competitor of Gaussian, Inc.  The licensee
 of this program is prohibited from giving any competitor of
 Gaussian, Inc. access to this program.  By using this program,
 the user acknowledges that Gaussian, Inc. is engaged in the
 business of creating and licensing software in the field of
 computational chemistry and represents and warrants to the
 licensee that it is not a competitor of Gaussian, Inc. and that
 it will not use this program in any manner prohibited above.
 ---------------------------------------------------------------
  

 Cite this work as:
 Gaussian 16, Revision C.01,
 M. J. Frisch, G. W. Trucks, H. B. Schlegel, G. E. Scuseria, 
 M. A. Robb, J. R. Cheeseman, G. Scalmani, V. Barone, 
 G. A. Petersson, H. Nakatsuji, X. Li, M. Caricato, A. V. Marenich, 
 J. Bloino, B. G. Janesko, R. Gomperts, B. Mennucci, H. P. Hratchian, 
 J. V. Ortiz, A. F. Izmaylov, J. L. Sonnenberg, D. Williams-Young, 
 F. Ding, F. Lipparini, F. Egidi, J. Goings, B. Peng, A. Petrone, 
 T. Henderson, D. Ranasinghe, V. G. Zakrzewski, J. Gao, N. Rega, 
 G. Zheng, W. Liang, M. Hada, M. Ehara, K. Toyota, R. Fukuda, 
 J. Hasegawa, M. Ishida, T. Nakajima, Y. Honda, O. Kitao, H. Nakai, 
 T. Vreven, K. Throssell, J. A. Montgomery, Jr., J. E. Peralta, 
 F. Ogliaro, M. J. Bearpark, J. J. Heyd, E. N. Brothers, K. N. Kudin, 
 V. N. Staroverov, T. A. Keith, R. Kobayashi, J. Normand, 
 K. Raghavachari, A. P. Rendell, J. C. Burant, S. S. Iyengar, 
 J. Tomasi, M. Cossi, J. M. Millam, M. Klene, C. Adamo, R. Cammi, 
 J. W. Ochterski, R. L. Martin, K. Morokuma, O. Farkas, 
 J. B. Foresman, and D. J. Fox, Gaussian, Inc., Wallingford CT, 2019.
 
 ******************************************
 Gaussian 16:  ES64L-G16RevC.01  3-Jul-2019
                27-Apr-2023 
 ******************************************
 %nprocshared=20
 Will use up to   20 processors via shared memory.
 %mem=10000MW
 %chk=CYH-182-A_eq00002.chk
 ------------------------------------
 # opt freq M062x/aug-cc-pvtz pop=nbo
 ------------------------------------
 1/18=20,19=15,26=3,38=1/1,3;
 2/9=110,12=2,17=6,18=5,40=1/2;
 3/5=16,6=1,7=10,11=2,25=1,30=1,71=1,74=-55/1,2,3;
 4//1;
 5/5=2,38=5/2;
 6/7=2,8=2,9=2,10=2,28=1,40=1/1,7;
 7//1,2,3,16;
 1/18=20,19=15,26=3/3(2);
 2/9=110/2;
 99//99;
 2/9=110/2;
 3/5=16,6=1,7=10,11=2,25=1,30=1,71=1,74=-55/1,2,3;
 4/5=5,16=3,69=1/1;
 5/5=2,38=5/2;
 7//1,2,3,16;
 1/18=20,19=15,26=3/3(-5);
 2/9=110/2;
 6/7=2,8=2,9=2,10=2,19=2,28=1,40=1/1,7;
 99/9=1/99;
 -----------------
 CYH-182-A_eq00002
 -----------------
 Symbolic Z-matrix:
 Charge =  0 Multiplicity = 1
 C                     0.41642   0.41008  -0.07367 
 C                     0.88223  -0.88761   0.12636 
 C                    -0.01279  -1.91836   0.33662 
 C                    -1.36838  -1.63401   0.3437 
 C                    -1.85545  -0.35206   0.14754 
 C                    -0.95306   0.67098  -0.0618 
 C                     1.34401   1.54093  -0.30168 
 F                    -2.24099  -2.63736   0.54781 
 O                     0.99979   2.68236  -0.47969 
 O                     2.63645   1.18001  -0.2933 
 H                     1.94307  -1.08035   0.11575 
 H                     0.32154  -2.93159   0.4939 
 H                    -2.91904  -0.17472   0.16104 
 H                    -1.28837   1.68456  -0.21907 
 H                     3.19366   1.95893  -0.44671 
 

 GradGradGradGradGradGradGradGradGradGradGradGradGradGradGradGradGradGrad
 Berny optimization.
 Initialization pass.
                           ----------------------------
                           !    Initial Parameters    !
                           ! (Angstroms and Degrees)  !
 --------------------------                            --------------------------
 ! Name  Definition              Value          Derivative Info.                !
 --------------------------------------------------------------------------------
 ! R1    R(1,2)                  1.3932         estimate D2E/DX2                !
 ! R2    R(1,6)                  1.3942         estimate D2E/DX2                !
 ! R3    R(1,7)                  1.4803         estimate D2E/DX2                !
 ! R4    R(2,3)                  1.3812         estimate D2E/DX2                !
 ! R5    R(2,11)                 1.0783         estimate D2E/DX2                !
 ! R6    R(3,4)                  1.3851         estimate D2E/DX2                !
 ! R7    R(3,12)                 1.0785         estimate D2E/DX2                !
 ! R8    R(4,5)                  1.3853         estimate D2E/DX2                !
 ! R9    R(4,8)                  1.3453         estimate D2E/DX2                !
 ! R10   R(5,6)                  1.3801         estimate D2E/DX2                !
 ! R11   R(5,13)                 1.0784         estimate D2E/DX2                !
 ! R12   R(6,14)                 1.0791         estimate D2E/DX2                !
 ! R13   R(7,9)                  1.2054         estimate D2E/DX2                !
 ! R14   R(7,10)                 1.3419         estimate D2E/DX2                !
 ! R15   R(10,15)                0.9699         estimate D2E/DX2                !
 ! A1    A(2,1,6)              120.1007         estimate D2E/DX2                !
 ! A2    A(2,1,7)              121.613          estimate D2E/DX2                !
 ! A3    A(6,1,7)              118.2863         estimate D2E/DX2                !
 ! A4    A(1,2,3)              120.0209         estimate D2E/DX2                !
 ! A5    A(1,2,11)             119.6062         estimate D2E/DX2                !
 ! A6    A(3,2,11)             120.3729         estimate D2E/DX2                !
 ! A7    A(2,3,4)              118.8004         estimate D2E/DX2                !
 ! A8    A(2,3,12)             121.4956         estimate D2E/DX2                !
 ! A9    A(4,3,12)             119.7039         estimate D2E/DX2                !
 ! A10   A(3,4,5)              122.2321         estimate D2E/DX2                !
 ! A11   A(3,4,8)              118.8472         estimate D2E/DX2                !
 ! A12   A(5,4,8)              118.9207         estimate D2E/DX2                !
 ! A13   A(4,5,6)              118.5255         estimate D2E/DX2                !
 ! A14   A(4,5,13)             119.8144         estimate D2E/DX2                !
 ! A15   A(6,5,13)             121.6602         estimate D2E/DX2                !
 ! A16   A(1,6,5)              120.3205         estimate D2E/DX2                !
 ! A17   A(1,6,14)             118.67           estimate D2E/DX2                !
 ! A18   A(5,6,14)             121.0095         estimate D2E/DX2                !
 ! A19   A(1,7,9)              124.5553         estimate D2E/DX2                !
 ! A20   A(1,7,10)             113.3967         estimate D2E/DX2                !
 ! A21   A(9,7,10)             122.0479         estimate D2E/DX2                !
 ! A22   A(7,10,15)            109.6537         estimate D2E/DX2                !
 ! D1    D(6,1,2,3)              0.0123         estimate D2E/DX2                !
 ! D2    D(6,1,2,11)          -179.9898         estimate D2E/DX2                !
 ! D3    D(7,1,2,3)            179.9793         estimate D2E/DX2                !
 ! D4    D(7,1,2,11)            -0.0227         estimate D2E/DX2                !
 ! D5    D(2,1,6,5)             -0.0084         estimate D2E/DX2                !
 ! D6    D(2,1,6,14)           179.9923         estimate D2E/DX2                !
 ! D7    D(7,1,6,5)           -179.9765         estimate D2E/DX2                !
 ! D8    D(7,1,6,14)             0.0242         estimate D2E/DX2                !
 ! D9    D(2,1,7,9)           -179.9679         estimate D2E/DX2                !
 ! D10   D(2,1,7,10)             0.019          estimate D2E/DX2                !
 ! D11   D(6,1,7,9)             -0.0003         estimate D2E/DX2                !
 ! D12   D(6,1,7,10)           179.9867         estimate D2E/DX2                !
 ! D13   D(1,2,3,4)              0.0002         estimate D2E/DX2                !
 ! D14   D(1,2,3,12)           179.9943         estimate D2E/DX2                !
 ! D15   D(11,2,3,4)          -179.9977         estimate D2E/DX2                !
 ! D16   D(11,2,3,12)           -0.0036         estimate D2E/DX2                !
 ! D17   D(2,3,4,5)             -0.017          estimate D2E/DX2                !
 ! D18   D(2,3,4,8)            179.9706         estimate D2E/DX2                !
 ! D19   D(12,3,4,5)           179.9887         estimate D2E/DX2                !
 ! D20   D(12,3,4,8)            -0.0237         estimate D2E/DX2                !
 ! D21   D(3,4,5,6)              0.0208         estimate D2E/DX2                !
 ! D22   D(3,4,5,13)          -179.9859         estimate D2E/DX2                !
 ! D23   D(8,4,5,6)           -179.9668         estimate D2E/DX2                !
 ! D24   D(8,4,5,13)             0.0265         estimate D2E/DX2                !
 ! D25   D(4,5,6,1)             -0.0078         estimate D2E/DX2                !
 ! D26   D(4,5,6,14)           179.9915         estimate D2E/DX2                !
 ! D27   D(13,5,6,1)           179.9991         estimate D2E/DX2                !
 ! D28   D(13,5,6,14)           -0.0017         estimate D2E/DX2                !
 ! D29   D(1,7,10,15)         -179.9796         estimate D2E/DX2                !
 ! D30   D(9,7,10,15)            0.0077         estimate D2E/DX2                !
 --------------------------------------------------------------------------------
 Trust Radius=3.00D-01 FncErr=1.00D-07 GrdErr=1.00D-06 EigMax=2.50D+02 EigMin=1.00D-04
 Number of steps in this run=     77 maximum allowed number of steps=    100.
 GradGradGradGradGradGradGradGradGradGradGradGradGradGradGradGradGradGrad

                          Input orientation:                          
 ---------------------------------------------------------------------
 Center     Atomic      Atomic             Coordinates (Angstroms)
 Number     Number       Type             X           Y           Z
 ---------------------------------------------------------------------
      1          6           0        0.416420    0.410075   -0.073668
      2          6           0        0.882229   -0.887609    0.126356
      3          6           0       -0.012790   -1.918364    0.336618
      4          6           0       -1.368383   -1.634008    0.343698
      5          6           0       -1.855446   -0.352062    0.147543
      6          6           0       -0.953056    0.670983   -0.061801
      7          6           0        1.344008    1.540930   -0.301680
      8          9           0       -2.240989   -2.637355    0.547812
      9          8           0        0.999794    2.682363   -0.479694
     10          8           0        2.636449    1.180014   -0.293295
     11          1           0        1.943068   -1.080354    0.115753
     12          1           0        0.321542   -2.931592    0.493896
     13          1           0       -2.919039   -0.174716    0.161038
     14          1           0       -1.288372    1.684560   -0.219069
     15          1           0        3.193664    1.958934   -0.446706
 ---------------------------------------------------------------------
                    Distance matrix (angstroms):
                    1          2          3          4          5
     1  C    0.000000
     2  C    1.393187   0.000000
     3  C    2.402954   1.381205   0.000000
     4  C    2.745540   2.381093   1.385114   0.000000
     5  C    2.406484   2.789646   2.425785   1.385313   0.000000
     6  C    1.394159   2.415136   2.783444   2.376954   1.380129
     7  C    1.480284   2.508836   3.770284   4.225377   3.744560
     8  F    4.090830   3.604681   2.350834   1.345292   2.351897
     9  O    2.380856   3.622957   4.781045   4.991723   4.213498
    10  O    2.359994   2.743804   4.124949   4.935905   4.766416
    11  H    2.141941   1.078259   2.139257   3.365144   3.867832
    12  H    3.390851   2.151121   1.078491   2.135914   3.393112
    13  H    3.394460   3.867694   3.393733   2.137156   1.078362
    14  H    2.133488   3.383323   3.862248   3.366898   2.145648
    15  H    3.201750   3.711325   5.091992   5.860566   5.584563
                    6          7          8          9         10
     6  C    0.000000
     7  C    2.467966   0.000000
     8  F    3.602152   5.570629   0.000000
     9  O    2.834415   1.205422   6.313307   0.000000
    10  O    3.632802   1.341915   6.250534   2.229448   0.000000
    11  H    3.389136   2.721076   4.485227   3.924585   2.399450
    12  H    3.861599   4.656375   2.579932   5.737978   4.783698
    13  H    2.151733   4.618563   2.583397   4.891901   5.736302
    14  H    1.079123   2.637590   4.491607   2.509829   3.957815
    15  H    4.359157   1.901837   7.186820   2.310303   0.969917
                   11         12         13         14         15
    11  H    0.000000
    12  H    2.489863   0.000000
    13  H    4.945939   4.267613   0.000000
    14  H    4.266035   4.940546   2.502091   0.000000
    15  H    3.334310   5.749005   6.502842   4.496192   0.000000
 Stoichiometry    C7H5FO2
 Framework group  C1[X(C7H5FO2)]
 Deg. of freedom    39
 Full point group                 C1      NOp   1
 Largest Abelian subgroup         C1      NOp   1
 Largest concise Abelian subgroup C1      NOp   1
                         Standard orientation:                         
 ---------------------------------------------------------------------
 Center     Atomic      Atomic             Coordinates (Angstroms)
 Number     Number       Type             X           Y           Z
 ---------------------------------------------------------------------
      1          6           0        0.648883    0.036775   -0.000320
      2          6           0       -0.020775   -1.184916   -0.000011
      3          6           0       -1.401629   -1.216057    0.000233
      4          6           0       -2.096118   -0.017631    0.000162
      5          6           0       -1.452689    1.209190    0.000202
      6          6           0       -0.072712    1.229662   -0.000124
      7          6           0        2.127293    0.111255   -0.000134
      8          9           0       -3.441092   -0.046865   -0.000205
      9          8           0        2.760193    1.137159    0.000173
     10          8           0        2.721453   -1.091952   -0.000061
     11          1           0        0.545256   -2.102658    0.000001
     12          1           0       -1.944192   -2.148135    0.000383
     13          1           0       -2.032252    2.118570    0.000373
     14          1           0        0.469450    2.162703   -0.000244
     15          1           0        3.684889   -0.980017    0.000386
 ---------------------------------------------------------------------
 Rotational constants (GHZ):           3.9018035           0.7794022           0.6496348
 Standard basis: Aug-CC-pVTZ (5D, 7F)
 There are   675 symmetry adapted cartesian basis functions of A   symmetry.
 There are   575 symmetry adapted basis functions of A   symmetry.
   575 basis functions,   855 primitive gaussians,   675 cartesian basis functions
    36 alpha electrons       36 beta electrons
       nuclear repulsion energy       488.0188133261 Hartrees.
 NAtoms=   15 NActive=   15 NUniq=   15 SFac= 1.00D+00 NAtFMM=   60 NAOKFM=F Big=F
 Integral buffers will be    131072 words long.
 Raffenetti 2 integral format.
 Two-electron integral symmetry is turned on.
 One-electron integrals computed using PRISM.
 NBasis=   575 RedAO= T EigKep=  1.16D-06  NBF=   575
 NBsUse=   574 1.00D-06 EigRej=  7.44D-07 NBFU=   574
 ExpMin= 2.53D-02 ExpMax= 1.95D+04 ExpMxC= 6.65D+02 IAcc=3 IRadAn=         5 AccDes= 0.00D+00
 Harris functional with IExCor= 1009 and IRadAn=       5 diagonalized for initial guess.
 HarFok:  IExCor= 1009 AccDes= 0.00D+00 IRadAn=         5 IDoV= 1 UseB2=F ITyADJ=14
 ICtDFT=  3500011 ScaDFX=  1.000000  1.000000  1.000000  1.000000
 FoFCou: FMM=F IPFlag=           0 FMFlag=      100000 FMFlg1=           0
         NFxFlg=           0 DoJE=T BraDBF=F KetDBF=T FulRan=T
         wScrn=  0.000000 ICntrl=       500 IOpCl=  0 I1Cent=   200000004 NGrid=           0
         NMat0=    1 NMatS0=      1 NMatT0=    0 NMatD0=    1 NMtDS0=    0 NMtDT0=    0
 Petite list used in FoFCou.
 Requested convergence on RMS density matrix=1.00D-08 within 128 cycles.
 Requested convergence on MAX density matrix=1.00D-06.
 Requested convergence on             energy=1.00D-06.
 No special actions if energy rises.
 SCF Done:  E(RM062X) =  -520.071363024     A.U. after   14 cycles
            NFock= 14  Conv=0.24D-08     -V/T= 2.0050

 **********************************************************************

            Population analysis using the SCF Density.

 **********************************************************************

 Orbital symmetries:
       Occupied  (A) (A) (A) (A) (A) (A) (A) (A) (A) (A) (A) (A)
                 (A) (A) (A) (A) (A) (A) (A) (A) (A) (A) (A) (A)
                 (A) (A) (A) (A) (A) (A) (A) (A) (A) (A) (A) (A)
       Virtual   (A) (A) (A) (A) (A) (A) (A) (A) (A) (A) (A) (A)
                 (A) (A) (A) (A) (A) (A) (A) (A) (A) (A) (A) (A)
                 (A) (A) (A) (A) (A) (A) (A) (A) (A) (A) (A) (A)
                 (A) (A) (A) (A) (A) (A) (A) (A) (A) (A) (A) (A)
                 (A) (A) (A) (A) (A) (A) (A) (A) (A) (A) (A) (A)
                 (A) (A) (A) (A) (A) (A) (A) (A) (A) (A) (A) (A)
                 (A) (A) (A) (A) (A) (A) (A) (A) (A) (A) (A) (A)
                 (A) (A) (A) (A) (A) (A) (A) (A) (A) (A) (A) (A)
                 (A) (A) (A) (A) (A) (A) (A) (A) (A) (A) (A) (A)
                 (A) (A) (A) (A) (A) (A) (A) (A) (A) (A) (A) (A)
                 (A) (A) (A) (A) (A) (A) (A) (A) (A) (A) (A) (A)
                 (A) (A) (A) (A) (A) (A) (A) (A) (A) (A) (A) (A)
                 (A) (A) (A) (A) (A) (A) (A) (A) (A) (A) (A) (A)
                 (A) (A) (A) (A) (A) (A) (A) (A) (A) (A) (A) (A)
                 (A) (A) (A) (A) (A) (A) (A) (A) (A) (A) (A) (A)
                 (A) (A) (A) (A) (A) (A) (A) (A) (A) (A) (A) (A)
                 (A) (A) (A) (A) (A) (A) (A) (A) (A) (A) (A) (A)
                 (A) (A) (A) (A) (A) (A) (A) (A) (A) (A) (A) (A)
                 (A) (A) (A) (A) (A) (A) (A) (A) (A) (A) (A) (A)
                 (A) (A) (A) (A) (A) (A) (A) (A) (A) (A) (A) (A)
                 (A) (A) (A) (A) (A) (A) (A) (A) (A) (A) (A) (A)
                 (A) (A) (A) (A) (A) (A) (A) (A) (A) (A) (A) (A)
                 (A) (A) (A) (A) (A) (A) (A) (A) (A) (A) (A) (A)
                 (A) (A) (A) (A) (A) (A) (A) (A) (A) (A) (A) (A)
                 (A) (A) (A) (A) (A) (A) (A) (A) (A) (A) (A) (A)
                 (A) (A) (A) (A) (A) (A) (A) (A) (A) (A) (A) (A)
                 (A) (A) (A) (A) (A) (A) (A) (A) (A) (A) (A) (A)
                 (A) (A) (A) (A) (A) (A) (A) (A) (A) (A) (A) (A)
                 (A) (A) (A) (A) (A) (A) (A) (A) (A) (A) (A) (A)
                 (A) (A) (A) (A) (A) (A) (A) (A) (A) (A) (A) (A)
                 (A) (A) (A) (A) (A) (A) (A) (A) (A) (A) (A) (A)
                 (A) (A) (A) (A) (A) (A) (A) (A) (A) (A) (A) (A)
                 (A) (A) (A) (A) (A) (A) (A) (A) (A) (A) (A) (A)
                 (A) (A) (A) (A) (A) (A) (A) (A) (A) (A) (A) (A)
                 (A) (A) (A) (A) (A) (A) (A) (A) (A) (A) (A) (A)
                 (A) (A) (A) (A) (A) (A) (A) (A) (A) (A) (A) (A)
                 (A) (A) (A) (A) (A) (A) (A) (A) (A) (A) (A) (A)
                 (A) (A) (A) (A) (A) (A) (A) (A) (A) (A) (A) (A)
                 (A) (A) (A) (A) (A) (A) (A) (A) (A) (A) (A) (A)
                 (A) (A) (A) (A) (A) (A) (A) (A) (A) (A) (A) (A)
                 (A) (A) (A) (A) (A) (A) (A) (A) (A) (A) (A) (A)
                 (A) (A) (A) (A) (A) (A) (A) (A) (A) (A) (A) (A)
                 (A) (A) (A) (A) (A) (A) (A) (A) (A) (A) (A) (A)
                 (A) (A) (A) (A) (A) (A) (A) (A) (A) (A) (A) (A)
                 (A) (A) (A) (A) (A) (A) (A) (A) (A) (A)
 The electronic state is 1-A.
 Alpha  occ. eigenvalues --  -25.27216 -19.68285 -19.62344 -10.68856 -10.65116
 Alpha  occ. eigenvalues --  -10.57361 -10.57241 -10.57140 -10.56660 -10.56639
 Alpha  occ. eigenvalues --   -1.38922  -1.24938  -1.15080  -0.99654  -0.88744
 Alpha  occ. eigenvalues --   -0.87912  -0.77106  -0.73451  -0.69831  -0.64887
 Alpha  occ. eigenvalues --   -0.61975  -0.59764  -0.58496  -0.57919  -0.55122
 Alpha  occ. eigenvalues --   -0.54193  -0.52126  -0.50690  -0.49939  -0.46863
 Alpha  occ. eigenvalues --   -0.45725  -0.42649  -0.41027  -0.37001  -0.33893
 Alpha  occ. eigenvalues --   -0.32433
 Alpha virt. eigenvalues --   -0.02892  -0.00914  -0.00442   0.00159   0.00631
 Alpha virt. eigenvalues --    0.02091   0.02776   0.02990   0.03650   0.05266
 Alpha virt. eigenvalues --    0.05861   0.06030   0.06125   0.07063   0.07904
 Alpha virt. eigenvalues --    0.07983   0.08287   0.09235   0.09399   0.09401
 Alpha virt. eigenvalues --    0.09545   0.09949   0.10067   0.10933   0.11059
 Alpha virt. eigenvalues --    0.11158   0.12823   0.12892   0.13485   0.14209
 Alpha virt. eigenvalues --    0.15705   0.16045   0.17034   0.17835   0.18494
 Alpha virt. eigenvalues --    0.19084   0.19493   0.19810   0.19908   0.20523
 Alpha virt. eigenvalues --    0.20683   0.21773   0.22328   0.22627   0.23104
 Alpha virt. eigenvalues --    0.23226   0.23777   0.23866   0.24251   0.24483
 Alpha virt. eigenvalues --    0.25303   0.25329   0.26612   0.26789   0.27972
 Alpha virt. eigenvalues --    0.28345   0.28702   0.29825   0.30542   0.31463
 Alpha virt. eigenvalues --    0.31974   0.32276   0.32537   0.32708   0.33739
 Alpha virt. eigenvalues --    0.33832   0.34529   0.34593   0.35493   0.35557
 Alpha virt. eigenvalues --    0.36200   0.36294   0.36395   0.36956   0.38222
 Alpha virt. eigenvalues --    0.38396   0.39096   0.39175   0.39847   0.40895
 Alpha virt. eigenvalues --    0.41313   0.41723   0.42628   0.43596   0.43711
 Alpha virt. eigenvalues --    0.44904   0.45689   0.45715   0.45862   0.46798
 Alpha virt. eigenvalues --    0.48097   0.48205   0.48489   0.49998   0.52405
 Alpha virt. eigenvalues --    0.52586   0.52789   0.54113   0.54155   0.54879
 Alpha virt. eigenvalues --    0.54962   0.55385   0.55414   0.57069   0.57983
 Alpha virt. eigenvalues --    0.58699   0.59313   0.60409   0.61493   0.61905
 Alpha virt. eigenvalues --    0.63735   0.63982   0.64796   0.66490   0.66706
 Alpha virt. eigenvalues --    0.66722   0.68136   0.69375   0.69669   0.70547
 Alpha virt. eigenvalues --    0.71310   0.72363   0.72522   0.73274   0.73924
 Alpha virt. eigenvalues --    0.74127   0.74976   0.75210   0.75977   0.75981
 Alpha virt. eigenvalues --    0.77276   0.77664   0.78018   0.78311   0.78844
 Alpha virt. eigenvalues --    0.78980   0.80681   0.80771   0.81564   0.82915
 Alpha virt. eigenvalues --    0.83067   0.84503   0.84837   0.84990   0.86013
 Alpha virt. eigenvalues --    0.86564   0.87129   0.88254   0.88705   0.88997
 Alpha virt. eigenvalues --    0.89806   0.89810   0.90864   0.91863   0.92247
 Alpha virt. eigenvalues --    0.93469   0.94156   0.94871   0.95195   0.95254
 Alpha virt. eigenvalues --    0.96764   0.96984   0.98386   0.98900   0.99571
 Alpha virt. eigenvalues --    1.00139   1.00265   1.01886   1.02371   1.03552
 Alpha virt. eigenvalues --    1.04169   1.04592   1.05461   1.05651   1.07305
 Alpha virt. eigenvalues --    1.07701   1.07955   1.08592   1.08867   1.10250
 Alpha virt. eigenvalues --    1.11601   1.12110   1.13022   1.13505   1.13934
 Alpha virt. eigenvalues --    1.14766   1.15465   1.16737   1.17944   1.18310
 Alpha virt. eigenvalues --    1.19997   1.20916   1.22220   1.22396   1.23643
 Alpha virt. eigenvalues --    1.24419   1.24543   1.27743   1.29176   1.29688
 Alpha virt. eigenvalues --    1.30345   1.30903   1.32037   1.32071   1.33246
 Alpha virt. eigenvalues --    1.35273   1.35373   1.36628   1.37055   1.39494
 Alpha virt. eigenvalues --    1.41326   1.43763   1.44029   1.44583   1.44905
 Alpha virt. eigenvalues --    1.45689   1.48317   1.48985   1.49966   1.49971
 Alpha virt. eigenvalues --    1.50126   1.51228   1.52232   1.52323   1.53503
 Alpha virt. eigenvalues --    1.53830   1.58477   1.59985   1.60853   1.60944
 Alpha virt. eigenvalues --    1.61678   1.63072   1.64374   1.64514   1.65137
 Alpha virt. eigenvalues --    1.66120   1.66148   1.67344   1.68072   1.69192
 Alpha virt. eigenvalues --    1.70146   1.71894   1.73654   1.76508   1.77454
 Alpha virt. eigenvalues --    1.78015   1.78702   1.80241   1.81080   1.81642
 Alpha virt. eigenvalues --    1.83336   1.83657   1.85956   1.86072   1.87042
 Alpha virt. eigenvalues --    1.88174   1.89150   1.89976   1.90530   1.92692
 Alpha virt. eigenvalues --    1.92859   1.92887   1.94038   1.98050   1.99569
 Alpha virt. eigenvalues --    1.99827   2.04075   2.04484   2.05424   2.06689
 Alpha virt. eigenvalues --    2.07186   2.09348   2.11185   2.12457   2.13837
 Alpha virt. eigenvalues --    2.14007   2.15577   2.18111   2.18857   2.20627
 Alpha virt. eigenvalues --    2.22099   2.23577   2.25086   2.27956   2.29875
 Alpha virt. eigenvalues --    2.31019   2.31392   2.32838   2.33451   2.33653
 Alpha virt. eigenvalues --    2.36658   2.38420   2.38664   2.40076   2.41665
 Alpha virt. eigenvalues --    2.44897   2.45835   2.47682   2.48120   2.52214
 Alpha virt. eigenvalues --    2.52435   2.55541   2.56246   2.57169   2.60530
 Alpha virt. eigenvalues --    2.62984   2.67249   2.67941   2.69103   2.69764
 Alpha virt. eigenvalues --    2.71532   2.72263   2.72559   2.76581   2.77488
 Alpha virt. eigenvalues --    2.78780   2.80371   2.84754   2.84764   2.86002
 Alpha virt. eigenvalues --    2.87939   2.88323   2.91480   2.92814   2.94849
 Alpha virt. eigenvalues --    2.95429   2.95784   2.97962   2.98516   3.02649
 Alpha virt. eigenvalues --    3.03770   3.04302   3.04575   3.05476   3.06064
 Alpha virt. eigenvalues --    3.07101   3.10534   3.10693   3.12141   3.13818
 Alpha virt. eigenvalues --    3.13938   3.16404   3.17810   3.19382   3.20077
 Alpha virt. eigenvalues --    3.21718   3.22144   3.23945   3.25066   3.26777
 Alpha virt. eigenvalues --    3.27425   3.28123   3.29236   3.30133   3.31379
 Alpha virt. eigenvalues --    3.33645   3.34285   3.34949   3.37595   3.40592
 Alpha virt. eigenvalues --    3.41194   3.42898   3.43294   3.46057   3.46462
 Alpha virt. eigenvalues --    3.47721   3.48444   3.50852   3.52347   3.52526
 Alpha virt. eigenvalues --    3.53266   3.54360   3.55904   3.56870   3.57293
 Alpha virt. eigenvalues --    3.59421   3.59895   3.62042   3.63194   3.64280
 Alpha virt. eigenvalues --    3.65858   3.67261   3.69026   3.69718   3.71315
 Alpha virt. eigenvalues --    3.74190   3.75438   3.76765   3.77700   3.78517
 Alpha virt. eigenvalues --    3.80393   3.81291   3.82371   3.85228   3.89662
 Alpha virt. eigenvalues --    3.89778   3.90666   3.91342   3.91556   3.93117
 Alpha virt. eigenvalues --    3.93531   3.95006   3.95426   3.96590   3.98300
 Alpha virt. eigenvalues --    3.98790   4.00109   4.00891   4.03079   4.05587
 Alpha virt. eigenvalues --    4.05606   4.09266   4.10305   4.10747   4.12233
 Alpha virt. eigenvalues --    4.14855   4.17649   4.18868   4.19446   4.21209
 Alpha virt. eigenvalues --    4.23242   4.25271   4.27363   4.27455   4.29812
 Alpha virt. eigenvalues --    4.31788   4.32547   4.33624   4.35571   4.39884
 Alpha virt. eigenvalues --    4.42726   4.44741   4.47317   4.49183   4.50189
 Alpha virt. eigenvalues --    4.52298   4.54613   4.55804   4.58653   4.61959
 Alpha virt. eigenvalues --    4.62625   4.64857   4.66124   4.68755   4.69567
 Alpha virt. eigenvalues --    4.73574   4.74277   4.74796   4.75957   4.78285
 Alpha virt. eigenvalues --    4.79386   4.81924   4.82356   4.87318   4.89047
 Alpha virt. eigenvalues --    4.91706   4.93346   4.94580   4.98932   4.99844
 Alpha virt. eigenvalues --    5.04866   5.05456   5.06644   5.08853   5.11255
 Alpha virt. eigenvalues --    5.17135   5.21429   5.24740   5.31038   5.36865
 Alpha virt. eigenvalues --    5.37681   5.38935   5.48515   5.49921   5.50941
 Alpha virt. eigenvalues --    5.67193   5.70587   5.75473   5.78422   5.79875
 Alpha virt. eigenvalues --    5.84131   5.88717   5.92247   6.03677   6.06223
 Alpha virt. eigenvalues --    6.11773   6.21553   6.23242   6.33370   6.36252
 Alpha virt. eigenvalues --    6.39367   6.40256   6.42180   6.45773   6.51274
 Alpha virt. eigenvalues --    6.55464   6.57297   6.70322   6.73533   6.75290
 Alpha virt. eigenvalues --    6.81514   6.82400   6.83860   6.86447   6.91212
 Alpha virt. eigenvalues --    6.93758   7.05299   7.06575   7.12143   7.14682
 Alpha virt. eigenvalues --    7.28915   7.35218   7.47353   7.58370   7.82028
 Alpha virt. eigenvalues --    8.04890   8.42363   8.49790   8.69968   8.72404
 Alpha virt. eigenvalues --    8.82892   8.82972   8.88143   8.98297   8.99588
 Alpha virt. eigenvalues --    9.04151   9.33673   9.35752  14.93215  15.03463
 Alpha virt. eigenvalues --   15.62017  16.11131  16.48692  17.97907  18.17259
 Alpha virt. eigenvalues --   19.01544  19.30014  19.58934
          Condensed to atoms (all electrons):
               1          2          3          4          5          6
     1  C    7.418660  -0.440766  -0.349990  -0.624727  -0.266162  -0.563589
     2  C   -0.440766   7.888114   0.530236  -0.214207  -0.534234  -0.684341
     3  C   -0.349990   0.530236   6.968194   0.246713  -0.350170  -0.553136
     4  C   -0.624727  -0.214207   0.246713   7.102790   0.228615  -0.138748
     5  C   -0.266162  -0.534234  -0.350170   0.228615   6.904636   0.546614
     6  C   -0.563589  -0.684341  -0.553136  -0.138748   0.546614   8.058466
     7  C   -0.375472  -0.435305   0.134667   0.073380   0.075162  -0.124513
     8  F    0.052036   0.036034  -0.107275  -0.012128  -0.102440   0.051694
     9  O   -0.098797  -0.084603  -0.051224  -0.009303  -0.003359   0.162057
    10  O   -0.053081   0.030763  -0.027457  -0.008944  -0.012716   0.001713
    11  H   -0.510653   0.454095  -0.317681   0.129729   0.000221  -0.099425
    12  H    0.144793  -0.111381   0.530641  -0.784467  -0.156007   0.030163
    13  H    0.150528   0.015326  -0.137046  -0.762550   0.599385  -0.185645
    14  H   -0.373495   0.008988   0.014621   0.058603  -0.477153   0.441856
    15  H    0.007476   0.028949   0.018479   0.001814  -0.006487  -0.052154
               7          8          9         10         11         12
     1  C   -0.375472   0.052036  -0.098797  -0.053081  -0.510653   0.144793
     2  C   -0.435305   0.036034  -0.084603   0.030763   0.454095  -0.111381
     3  C    0.134667  -0.107275  -0.051224  -0.027457  -0.317681   0.530641
     4  C    0.073380  -0.012128  -0.009303  -0.008944   0.129729  -0.784467
     5  C    0.075162  -0.102440  -0.003359  -0.012716   0.000221  -0.156007
     6  C   -0.124513   0.051694   0.162057   0.001713  -0.099425   0.030163
     7  C    5.999273   0.001972  -0.076649   0.108902   0.071920  -0.011022
     8  F    0.001972   9.558476   0.000152   0.000351   0.003268   0.022106
     9  O   -0.076649   0.000152   9.285100  -0.096866  -0.008675   0.000381
    10  O    0.108902   0.000351  -0.096866   8.515044  -0.072707  -0.001745
    11  H    0.071920   0.003268  -0.008675  -0.072707   1.445041  -0.320267
    12  H   -0.011022   0.022106   0.000381  -0.001745  -0.320267   1.386512
    13  H   -0.021787   0.011369  -0.002948  -0.000113   0.007841  -0.016415
    14  H    0.075577   0.006663   0.005242   0.000073  -0.022643   0.006477
    15  H    0.069418  -0.000042  -0.110525   0.141895   0.003439   0.000548
              13         14         15
     1  C    0.150528  -0.373495   0.007476
     2  C    0.015326   0.008988   0.028949
     3  C   -0.137046   0.014621   0.018479
     4  C   -0.762550   0.058603   0.001814
     5  C    0.599385  -0.477153  -0.006487
     6  C   -0.185645   0.441856  -0.052154
     7  C   -0.021787   0.075577   0.069418
     8  F    0.011369   0.006663  -0.000042
     9  O   -0.002948   0.005242  -0.110525
    10  O   -0.000113   0.000073   0.141895
    11  H    0.007841  -0.022643   0.003439
    12  H   -0.016415   0.006477   0.000548
    13  H    1.355958  -0.299838  -0.000055
    14  H   -0.299838   1.362181   0.000170
    15  H   -0.000055   0.000170   0.591588
 Mulliken charges:
               1
     1  C    1.883240
     2  C   -0.487666
     3  C   -0.549571
     4  C    0.713432
     5  C   -0.445904
     6  C   -0.891013
     7  C    0.434477
     8  F   -0.522236
     9  O   -0.909982
    10  O   -0.525110
    11  H    0.236494
    12  H    0.279683
    13  H    0.285991
    14  H    0.192678
    15  H    0.305488
 Sum of Mulliken charges =   0.00000
 Mulliken charges with hydrogens summed into heavy atoms:
               1
     1  C    1.883240
     2  C   -0.251172
     3  C   -0.269888
     4  C    0.713432
     5  C   -0.159913
     6  C   -0.698335
     7  C    0.434477
     8  F   -0.522236
     9  O   -0.909982
    10  O   -0.219622
 Electronic spatial extent (au):  <R**2>=           1566.9517
 Charge=              0.0000 electrons
 Dipole moment (field-independent basis, Debye):
    X=              0.0844    Y=             -1.5018    Z=              0.0007  Tot=              1.5041
 Quadrupole moment (field-independent basis, Debye-Ang):
   XX=            -58.2098   YY=            -52.7445   ZZ=            -58.1144
   XY=             -6.8303   XZ=             -0.0003   YZ=             -0.0017
 Traceless Quadrupole moment (field-independent basis, Debye-Ang):
   XX=             -1.8536   YY=              3.6117   ZZ=             -1.7582
   XY=             -6.8303   XZ=             -0.0003   YZ=             -0.0017
 Octapole moment (field-independent basis, Debye-Ang**2):
  XXX=             42.8690  YYY=             -2.5670  ZZZ=             -0.0013  XYY=            -16.4451
  XXY=            -25.8704  XXZ=              0.0117  XZZ=              0.6449  YZZ=             -0.1182
  YYZ=              0.0020  XYZ=             -0.0053
 Hexadecapole moment (field-independent basis, Debye-Ang**3):
 XXXX=          -1350.4943 YYYY=           -364.3552 ZZZZ=            -59.6008 XXXY=           -108.1095
 XXXZ=              0.0282 YYYX=             -9.7386 YYYZ=             -0.0032 ZZZX=              0.0097
 ZZZY=              0.0006 XXYY=           -300.3772 XXZZ=           -244.9039 YYZZ=            -82.3341
 XXYZ=             -0.0169 YYXZ=             -0.0008 ZZXY=             -0.0466
 N-N= 4.880188133261D+02 E-N=-2.194913076758D+03  KE= 5.175018241373D+02
 ******************************Gaussian NBO Version 3.1******************************
             N A T U R A L   A T O M I C   O R B I T A L   A N D
          N A T U R A L   B O N D   O R B I T A L   A N A L Y S I S
 ******************************Gaussian NBO Version 3.1******************************
       /RESON  / : Allow strongly delocalized NBO set

 Analyzing the SCF density

 Job title: CYH-182-A_eq00002                                               

 Storage needed:    994295 in NPA,   1324496 in NBO (********** available)
 GSVD:  LWork=      -10505 too small for GESVD, short by      689066 words or      689066 for optimal perf.


 NATURAL POPULATIONS:  Natural atomic orbital occupancies 
                                                          
   NAO  Atom  No  lang   Type(AO)    Occupancy      Energy
 ----------------------------------------------------------
     1    C    1  S      Cor( 1S)     1.99901     -10.42096
     2    C    1  S      Val( 2S)     0.93164      -0.20113
     3    C    1  S      Ryd( 3S)     0.00136       1.74998
     4    C    1  S      Ryd( 4S)     0.00008       2.67985
     5    C    1  S      Ryd( 5S)     0.00003       3.45007
     6    C    1  px     Val( 2p)     1.06156      -0.10418
     7    C    1  px     Ryd( 4p)     0.00594       2.05578
     8    C    1  px     Ryd( 5p)     0.00007       2.10412
     9    C    1  px     Ryd( 3p)     0.00005       1.39305
    10    C    1  py     Val( 2p)     1.09802      -0.10051
    11    C    1  py     Ryd( 4p)     0.00554       1.89642
    12    C    1  py     Ryd( 5p)     0.00005       1.99824
    13    C    1  py     Ryd( 3p)     0.00004       1.21780
    14    C    1  pz     Val( 2p)     1.07998      -0.14391
    15    C    1  pz     Ryd( 4p)     0.00092       0.87663
    16    C    1  pz     Ryd( 5p)     0.00007       1.59907
    17    C    1  pz     Ryd( 3p)     0.00002       0.81659
    18    C    1  dxy    Ryd( 3d)     0.00078       2.90435
    19    C    1  dxy    Ryd( 4d)     0.00040       3.78049
    20    C    1  dxy    Ryd( 5d)     0.00009       4.76630
    21    C    1  dxz    Ryd( 3d)     0.00023       1.46999
    22    C    1  dxz    Ryd( 5d)     0.00013       3.00183
    23    C    1  dxz    Ryd( 4d)     0.00008       1.83766
    24    C    1  dyz    Ryd( 3d)     0.00043       1.33503
    25    C    1  dyz    Ryd( 5d)     0.00007       2.94865
    26    C    1  dyz    Ryd( 4d)     0.00003       2.04539
    27    C    1  dx2y2  Ryd( 3d)     0.00219       3.34531
    28    C    1  dx2y2  Ryd( 5d)     0.00024       3.92645
    29    C    1  dx2y2  Ryd( 4d)     0.00004       3.77510
    30    C    1  dz2    Ryd( 3d)     0.00089       1.85289
    31    C    1  dz2    Ryd( 4d)     0.00016       3.69792
    32    C    1  dz2    Ryd( 5d)     0.00010       4.86909
    33    C    1  f(0)   Ryd( 4f)     0.00058       1.30782
    34    C    1  f(0)   Ryd( 5f)     0.00013       3.49143
    35    C    1  f(C1)  Ryd( 4f)     0.00020       1.64364
    36    C    1  f(C1)  Ryd( 5f)     0.00037       3.62672
    37    C    1  f(S1)  Ryd( 4f)     0.00058       1.58346
    38    C    1  f(S1)  Ryd( 5f)     0.00022       3.63660
    39    C    1  f(C2)  Ryd( 4f)     0.00066       1.24832
    40    C    1  f(C2)  Ryd( 5f)     0.00003       3.52559
    41    C    1  f(S2)  Ryd( 4f)     0.00050       1.24098
    42    C    1  f(S2)  Ryd( 5f)     0.00003       3.54195
    43    C    1  f(C3)  Ryd( 4f)     0.00077       1.66966
    44    C    1  f(C3)  Ryd( 5f)     0.00010       4.14316
    45    C    1  f(S3)  Ryd( 4f)     0.00207       2.22335
    46    C    1  f(S3)  Ryd( 5f)     0.00016       4.35394
 
    47    C    2  S      Cor( 1S)     1.99922     -10.41636
    48    C    2  S      Val( 2S)     0.96446      -0.22857
    49    C    2  S      Ryd( 4S)     0.00113       1.79509
    50    C    2  S      Ryd( 5S)     0.00009       3.09333
    51    C    2  S      Ryd( 3S)     0.00002       1.78068
    52    C    2  px     Val( 2p)     1.07410      -0.08116
    53    C    2  px     Ryd( 4p)     0.00326       1.76010
    54    C    2  px     Ryd( 5p)     0.00008       2.44722
    55    C    2  px     Ryd( 3p)     0.00008       0.78682
    56    C    2  py     Val( 2p)     1.14091      -0.08609
    57    C    2  py     Ryd( 4p)     0.00411       1.61844
    58    C    2  py     Ryd( 5p)     0.00006       2.27595
    59    C    2  py     Ryd( 3p)     0.00004       1.03134
    60    C    2  pz     Val( 2p)     0.94666      -0.13492
    61    C    2  pz     Ryd( 4p)     0.00054       0.99127
    62    C    2  pz     Ryd( 5p)     0.00003       1.73156
    63    C    2  pz     Ryd( 3p)     0.00003       0.58349
    64    C    2  dxy    Ryd( 3d)     0.00174       2.50107
    65    C    2  dxy    Ryd( 5d)     0.00013       3.67741
    66    C    2  dxy    Ryd( 4d)     0.00009       2.65994
    67    C    2  dxz    Ryd( 3d)     0.00076       1.46182
    68    C    2  dxz    Ryd( 5d)     0.00003       2.88533
    69    C    2  dxz    Ryd( 4d)     0.00004       1.69749
    70    C    2  dyz    Ryd( 3d)     0.00028       1.37281
    71    C    2  dyz    Ryd( 5d)     0.00006       2.92942
    72    C    2  dyz    Ryd( 4d)     0.00004       1.41749
    73    C    2  dx2y2  Ryd( 4d)     0.00157       3.41998
    74    C    2  dx2y2  Ryd( 5d)     0.00026       3.92483
    75    C    2  dx2y2  Ryd( 3d)     0.00006       2.03525
    76    C    2  dz2    Ryd( 3d)     0.00084       1.87817
    77    C    2  dz2    Ryd( 4d)     0.00010       3.56418
    78    C    2  dz2    Ryd( 5d)     0.00009       3.66605
    79    C    2  f(0)   Ryd( 5f)     0.00009       3.47510
    80    C    2  f(0)   Ryd( 4f)     0.00003       2.10822
    81    C    2  f(C1)  Ryd( 5f)     0.00027       3.78543
    82    C    2  f(C1)  Ryd( 4f)     0.00002       3.10678
    83    C    2  f(S1)  Ryd( 5f)     0.00019       3.67439
    84    C    2  f(S1)  Ryd( 4f)     0.00002       2.71552
    85    C    2  f(C2)  Ryd( 5f)     0.00001       3.55638
    86    C    2  f(C2)  Ryd( 4f)     0.00003       2.32715
    87    C    2  f(S2)  Ryd( 5f)     0.00001       3.60005
    88    C    2  f(S2)  Ryd( 4f)     0.00001       2.10985
    89    C    2  f(C3)  Ryd( 4f)     0.00015       4.20650
    90    C    2  f(C3)  Ryd( 5f)     0.00003       6.01002
    91    C    2  f(S3)  Ryd( 5f)     0.00005       4.29109
    92    C    2  f(S3)  Ryd( 4f)     0.00009       3.57651
 
    93    C    3  S      Cor( 1S)     1.99915     -10.41189
    94    C    3  S      Val( 2S)     0.98042      -0.23833
    95    C    3  S      Ryd( 4S)     0.00132       1.70773
    96    C    3  S      Ryd( 5S)     0.00007       3.10874
    97    C    3  S      Ryd( 3S)     0.00002       1.59657
    98    C    3  px     Val( 2p)     1.09769      -0.09710
    99    C    3  px     Ryd( 5p)     0.00396       1.67994
   100    C    3  px     Ryd( 3p)     0.00015       1.35740
   101    C    3  px     Ryd( 4p)     0.00003       1.35811
   102    C    3  py     Val( 2p)     1.14495      -0.10425
   103    C    3  py     Ryd( 5p)     0.00342       1.70389
   104    C    3  py     Ryd( 4p)     0.00003       1.61413
   105    C    3  py     Ryd( 3p)     0.00005       1.52907
   106    C    3  pz     Val( 2p)     1.03940      -0.14572
   107    C    3  pz     Ryd( 4p)     0.00083       1.02675
   108    C    3  pz     Ryd( 5p)     0.00000       1.14198
   109    C    3  pz     Ryd( 3p)     0.00004       1.02500
   110    C    3  dxy    Ryd( 3d)     0.00255       2.27039
   111    C    3  dxy    Ryd( 5d)     0.00020       3.81603
   112    C    3  dxy    Ryd( 4d)     0.00005       2.56452
   113    C    3  dxz    Ryd( 3d)     0.00026       1.25289
   114    C    3  dxz    Ryd( 5d)     0.00003       3.15987
   115    C    3  dxz    Ryd( 4d)     0.00002       1.36413
   116    C    3  dyz    Ryd( 4d)     0.00058       1.22943
   117    C    3  dyz    Ryd( 5d)     0.00002       3.19854
   118    C    3  dyz    Ryd( 3d)     0.00005       1.20217
   119    C    3  dx2y2  Ryd( 4d)     0.00194       2.88944
   120    C    3  dx2y2  Ryd( 5d)     0.00022       3.94881
   121    C    3  dx2y2  Ryd( 3d)     0.00007       1.72619
   122    C    3  dz2    Ryd( 3d)     0.00091       1.67020
   123    C    3  dz2    Ryd( 5d)     0.00011       3.79768
   124    C    3  dz2    Ryd( 4d)     0.00008       3.36782
   125    C    3  f(0)   Ryd( 5f)     0.00013       3.48714
   126    C    3  f(0)   Ryd( 4f)     0.00002       1.92807
   127    C    3  f(C1)  Ryd( 5f)     0.00025       3.71605
   128    C    3  f(C1)  Ryd( 4f)     0.00003       2.63867
   129    C    3  f(S1)  Ryd( 5f)     0.00023       3.66293
   130    C    3  f(S1)  Ryd( 4f)     0.00003       2.54580
   131    C    3  f(C2)  Ryd( 5f)     0.00001       3.59123
   132    C    3  f(C2)  Ryd( 4f)     0.00004       2.10498
   133    C    3  f(S2)  Ryd( 5f)     0.00001       3.63974
   134    C    3  f(S2)  Ryd( 4f)     0.00001       2.08714
   135    C    3  f(C3)  Ryd( 4f)     0.00018       4.18627
   136    C    3  f(C3)  Ryd( 5f)     0.00005       5.25622
   137    C    3  f(S3)  Ryd( 5f)     0.00003       4.28465
   138    C    3  f(S3)  Ryd( 4f)     0.00016       3.58531
 
   139    C    4  S      Cor( 1S)     1.99861     -10.51809
   140    C    4  S      Val( 2S)     0.86682      -0.20149
   141    C    4  S      Ryd( 4S)     0.00173       2.08551
   142    C    4  S      Ryd( 3S)     0.00008       2.00336
   143    C    4  S      Ryd( 5S)     0.00002       2.72090
   144    C    4  px     Val( 2p)     0.65280      -0.05560
   145    C    4  px     Ryd( 4p)     0.00822       1.46804
   146    C    4  px     Ryd( 5p)     0.00005       2.04142
   147    C    4  px     Ryd( 3p)     0.00012       1.11773
   148    C    4  py     Val( 2p)     1.06694      -0.09270
   149    C    4  py     Ryd( 5p)     0.00332       1.68297
   150    C    4  py     Ryd( 4p)     0.00024       1.65343
   151    C    4  py     Ryd( 3p)     0.00003       0.82872
   152    C    4  pz     Val( 2p)     0.95174      -0.14982
   153    C    4  pz     Ryd( 4p)     0.00080       1.04142
   154    C    4  pz     Ryd( 5p)     0.00032       1.47826
   155    C    4  pz     Ryd( 3p)     0.00004       0.52978
   156    C    4  dxy    Ryd( 5d)     0.00215       3.49860
   157    C    4  dxy    Ryd( 4d)     0.00004       3.36238
   158    C    4  dxy    Ryd( 3d)     0.00006       3.13281
   159    C    4  dxz    Ryd( 3d)     0.00258       1.71081
   160    C    4  dxz    Ryd( 5d)     0.00008       2.55274
   161    C    4  dxz    Ryd( 4d)     0.00005       1.71493
   162    C    4  dyz    Ryd( 4d)     0.00093       1.72357
   163    C    4  dyz    Ryd( 5d)     0.00001       2.37664
   164    C    4  dyz    Ryd( 3d)     0.00000       1.70651
   165    C    4  dx2y2  Ryd( 3d)     0.00096       2.66210
   166    C    4  dx2y2  Ryd( 5d)     0.00034       3.10600
   167    C    4  dx2y2  Ryd( 4d)     0.00007       3.01929
   168    C    4  dz2    Ryd( 3d)     0.00050       2.45497
   169    C    4  dz2    Ryd( 5d)     0.00030       3.13817
   170    C    4  dz2    Ryd( 4d)     0.00017       2.81417
   171    C    4  f(0)   Ryd( 5f)     0.00026       3.53679
   172    C    4  f(0)   Ryd( 4f)     0.00001       2.02239
   173    C    4  f(C1)  Ryd( 5f)     0.00018       3.60520
   174    C    4  f(C1)  Ryd( 4f)     0.00002       2.54070
   175    C    4  f(S1)  Ryd( 5f)     0.00023       3.72454
   176    C    4  f(S1)  Ryd( 4f)     0.00004       2.63035
   177    C    4  f(C2)  Ryd( 5f)     0.00014       3.69781
   178    C    4  f(C2)  Ryd( 4f)     0.00006       2.16575
   179    C    4  f(S2)  Ryd( 5f)     0.00001       3.46159
   180    C    4  f(S2)  Ryd( 4f)     0.00000       2.37527
   181    C    4  f(C3)  Ryd( 4f)     0.00010       4.25922
   182    C    4  f(C3)  Ryd( 5f)     0.00006       5.77758
   183    C    4  f(S3)  Ryd( 5f)     0.00019       4.40794
   184    C    4  f(S3)  Ryd( 4f)     0.00008       3.51656
 
   185    C    5  S      Cor( 1S)     1.99914     -10.41158
   186    C    5  S      Val( 2S)     0.98116      -0.23819
   187    C    5  S      Ryd( 4S)     0.00126       1.71296
   188    C    5  S      Ryd( 5S)     0.00007       3.11537
   189    C    5  S      Ryd( 3S)     0.00002       1.60967
   190    C    5  px     Val( 2p)     1.10344      -0.09693
   191    C    5  px     Ryd( 5p)     0.00399       1.68134
   192    C    5  px     Ryd( 3p)     0.00014       1.33465
   193    C    5  px     Ryd( 4p)     0.00003       1.39689
   194    C    5  py     Val( 2p)     1.13972      -0.10327
   195    C    5  py     Ryd( 5p)     0.00327       1.71136
   196    C    5  py     Ryd( 4p)     0.00004       1.57429
   197    C    5  py     Ryd( 3p)     0.00005       1.53897
   198    C    5  pz     Val( 2p)     1.03681      -0.14504
   199    C    5  pz     Ryd( 3p)     0.00076       1.03419
   200    C    5  pz     Ryd( 5p)     0.00000       1.11903
   201    C    5  pz     Ryd( 4p)     0.00004       1.04944
   202    C    5  dxy    Ryd( 3d)     0.00249       2.18325
   203    C    5  dxy    Ryd( 5d)     0.00020       3.78685
   204    C    5  dxy    Ryd( 4d)     0.00006       2.64477
   205    C    5  dxz    Ryd( 3d)     0.00029       1.25884
   206    C    5  dxz    Ryd( 5d)     0.00003       3.15982
   207    C    5  dxz    Ryd( 4d)     0.00002       1.37245
   208    C    5  dyz    Ryd( 4d)     0.00060       1.23347
   209    C    5  dyz    Ryd( 5d)     0.00002       3.19278
   210    C    5  dyz    Ryd( 3d)     0.00004       1.21336
   211    C    5  dx2y2  Ryd( 4d)     0.00201       2.97333
   212    C    5  dx2y2  Ryd( 5d)     0.00021       3.96548
   213    C    5  dx2y2  Ryd( 3d)     0.00007       1.67559
   214    C    5  dz2    Ryd( 3d)     0.00090       1.67096
   215    C    5  dz2    Ryd( 5d)     0.00011       3.80112
   216    C    5  dz2    Ryd( 4d)     0.00008       3.36181
   217    C    5  f(0)   Ryd( 5f)     0.00013       3.48676
   218    C    5  f(0)   Ryd( 4f)     0.00002       1.92754
   219    C    5  f(C1)  Ryd( 5f)     0.00025       3.71405
   220    C    5  f(C1)  Ryd( 4f)     0.00002       2.62479
   221    C    5  f(S1)  Ryd( 5f)     0.00023       3.65821
   222    C    5  f(S1)  Ryd( 4f)     0.00003       2.54107
   223    C    5  f(C2)  Ryd( 5f)     0.00001       3.58652
   224    C    5  f(C2)  Ryd( 4f)     0.00003       2.11476
   225    C    5  f(S2)  Ryd( 5f)     0.00001       3.64540
   226    C    5  f(S2)  Ryd( 4f)     0.00001       2.07852
   227    C    5  f(C3)  Ryd( 4f)     0.00018       4.18462
   228    C    5  f(C3)  Ryd( 5f)     0.00006       5.20246
   229    C    5  f(S3)  Ryd( 5f)     0.00003       4.28043
   230    C    5  f(S3)  Ryd( 4f)     0.00016       3.56364
 
   231    C    6  S      Cor( 1S)     1.99922     -10.41460
   232    C    6  S      Val( 2S)     0.96624      -0.22712
   233    C    6  S      Ryd( 4S)     0.00121       1.77997
   234    C    6  S      Ryd( 5S)     0.00009       3.04636
   235    C    6  S      Ryd( 3S)     0.00002       1.69688
   236    C    6  px     Val( 2p)     1.06775      -0.07658
   237    C    6  px     Ryd( 5p)     0.00338       1.77627
   238    C    6  px     Ryd( 3p)     0.00007       1.43145
   239    C    6  px     Ryd( 4p)     0.00006       1.67543
   240    C    6  py     Val( 2p)     1.14693      -0.08599
   241    C    6  py     Ryd( 4p)     0.00428       1.62251
   242    C    6  py     Ryd( 3p)     0.00006       1.43761
   243    C    6  py     Ryd( 5p)     0.00004       1.85924
   244    C    6  pz     Val( 2p)     0.93481      -0.13144
   245    C    6  pz     Ryd( 4p)     0.00051       1.00544
   246    C    6  pz     Ryd( 3p)     0.00003       0.95988
   247    C    6  pz     Ryd( 5p)     0.00001       1.34658
   248    C    6  dxy    Ryd( 4d)     0.00169       2.61355
   249    C    6  dxy    Ryd( 5d)     0.00016       3.73924
   250    C    6  dxy    Ryd( 3d)     0.00008       2.59563
   251    C    6  dxz    Ryd( 3d)     0.00068       1.49025
   252    C    6  dxz    Ryd( 5d)     0.00001       2.92483
   253    C    6  dxz    Ryd( 4d)     0.00004       1.64144
   254    C    6  dyz    Ryd( 4d)     0.00026       1.40404
   255    C    6  dyz    Ryd( 5d)     0.00005       2.95956
   256    C    6  dyz    Ryd( 3d)     0.00004       1.36494
   257    C    6  dx2y2  Ryd( 4d)     0.00159       3.31647
   258    C    6  dx2y2  Ryd( 5d)     0.00025       3.95445
   259    C    6  dx2y2  Ryd( 3d)     0.00007       2.08607
   260    C    6  dz2    Ryd( 3d)     0.00076       1.91241
   261    C    6  dz2    Ryd( 4d)     0.00008       3.52022
   262    C    6  dz2    Ryd( 5d)     0.00009       3.64962
   263    C    6  f(0)   Ryd( 5f)     0.00009       3.43827
   264    C    6  f(0)   Ryd( 4f)     0.00003       2.14030
   265    C    6  f(C1)  Ryd( 5f)     0.00025       3.75539
   266    C    6  f(C1)  Ryd( 4f)     0.00002       3.15302
   267    C    6  f(S1)  Ryd( 5f)     0.00018       3.65414
   268    C    6  f(S1)  Ryd( 4f)     0.00002       2.73573
   269    C    6  f(C2)  Ryd( 5f)     0.00001       3.53250
   270    C    6  f(C2)  Ryd( 4f)     0.00003       2.35612
   271    C    6  f(S2)  Ryd( 5f)     0.00001       3.57701
   272    C    6  f(S2)  Ryd( 4f)     0.00001       2.11659
   273    C    6  f(C3)  Ryd( 4f)     0.00015       4.17460
   274    C    6  f(C3)  Ryd( 5f)     0.00003       5.91561
   275    C    6  f(S3)  Ryd( 5f)     0.00006       4.22548
   276    C    6  f(S3)  Ryd( 4f)     0.00010       3.68708
 
   277    C    7  S      Cor( 1S)     1.99938     -10.56521
   278    C    7  S      Val( 2S)     0.78961      -0.14987
   279    C    7  S      Ryd( 4S)     0.00432       1.88327
   280    C    7  S      Ryd( 3S)     0.00016       1.61988
   281    C    7  S      Ryd( 5S)     0.00007       2.35839
   282    C    7  px     Val( 2p)     0.91378      -0.06568
   283    C    7  px     Ryd( 5p)     0.00587       1.54238
   284    C    7  px     Ryd( 3p)     0.00023       1.08124
   285    C    7  px     Ryd( 4p)     0.00001       1.44769
   286    C    7  py     Val( 2p)     0.71936      -0.01731
   287    C    7  py     Ryd( 4p)     0.01407       1.57561
   288    C    7  py     Ryd( 3p)     0.00007       1.13724
   289    C    7  py     Ryd( 5p)     0.00008       1.69928
   290    C    7  pz     Val( 2p)     0.73992      -0.12942
   291    C    7  pz     Ryd( 5p)     0.00040       1.11742
   292    C    7  pz     Ryd( 3p)     0.00008       0.66960
   293    C    7  pz     Ryd( 4p)     0.00003       1.01528
   294    C    7  dxy    Ryd( 4d)     0.00056       3.10284
   295    C    7  dxy    Ryd( 3d)     0.00032       2.44958
   296    C    7  dxy    Ryd( 5d)     0.00011       3.83140
   297    C    7  dxz    Ryd( 4d)     0.00113       2.39654
   298    C    7  dxz    Ryd( 3d)     0.00014       1.62929
   299    C    7  dxz    Ryd( 5d)     0.00006       2.45923
   300    C    7  dyz    Ryd( 4d)     0.00164       2.54630
   301    C    7  dyz    Ryd( 3d)     0.00007       1.76072
   302    C    7  dyz    Ryd( 5d)     0.00005       2.66529
   303    C    7  dx2y2  Ryd( 4d)     0.00224       3.12844
   304    C    7  dx2y2  Ryd( 3d)     0.00014       2.10357
   305    C    7  dx2y2  Ryd( 5d)     0.00009       3.63424
   306    C    7  dz2    Ryd( 5d)     0.00029       3.41715
   307    C    7  dz2    Ryd( 3d)     0.00058       2.16485
   308    C    7  dz2    Ryd( 4d)     0.00008       3.15054
   309    C    7  f(0)   Ryd( 5f)     0.00010       3.26101
   310    C    7  f(0)   Ryd( 4f)     0.00003       2.58945
   311    C    7  f(C1)  Ryd( 5f)     0.00012       3.44574
   312    C    7  f(C1)  Ryd( 4f)     0.00002       3.13853
   313    C    7  f(S1)  Ryd( 5f)     0.00007       3.51276
   314    C    7  f(S1)  Ryd( 4f)     0.00004       3.38606
   315    C    7  f(C2)  Ryd( 5f)     0.00001       3.21783
   316    C    7  f(C2)  Ryd( 4f)     0.00005       2.74387
   317    C    7  f(S2)  Ryd( 5f)     0.00001       3.41272
   318    C    7  f(S2)  Ryd( 4f)     0.00000       2.93038
   319    C    7  f(C3)  Ryd( 4f)     0.00008       4.64062
   320    C    7  f(C3)  Ryd( 5f)     0.00004       8.10606
   321    C    7  f(S3)  Ryd( 5f)     0.00010       4.22743
   322    C    7  f(S3)  Ryd( 4f)     0.00004       4.17996
 
   323    F    8  S      Cor( 1S)     1.99993     -25.01093
   324    F    8  S      Val( 2S)     1.82634      -1.40914
   325    F    8  S      Ryd( 3S)     0.00086       1.68208
   326    F    8  S      Ryd( 5S)     0.00003       7.30223
   327    F    8  S      Ryd( 4S)     0.00001       5.03587
   328    F    8  px     Val( 2p)     1.60308      -0.48967
   329    F    8  px     Ryd( 3p)     0.00011       0.59021
   330    F    8  px     Ryd( 4p)     0.00020       1.40219
   331    F    8  px     Ryd( 5p)     0.00002       6.09729
   332    F    8  py     Val( 2p)     1.97082      -0.53269
   333    F    8  py     Ryd( 3p)     0.00176       0.75034
   334    F    8  py     Ryd( 4p)     0.00014       1.15416
   335    F    8  py     Ryd( 5p)     0.00001       5.01025
   336    F    8  pz     Val( 2p)     1.92813      -0.52677
   337    F    8  pz     Ryd( 3p)     0.00121       0.59888
   338    F    8  pz     Ryd( 4p)     0.00002       0.87370
   339    F    8  pz     Ryd( 5p)     0.00000       4.87440
   340    F    8  dxy    Ryd( 4d)     0.00068       3.18118
   341    F    8  dxy    Ryd( 3d)     0.00001       2.25190
   342    F    8  dxy    Ryd( 5d)     0.00001       9.02167
   343    F    8  dxz    Ryd( 4d)     0.00112       2.81465
   344    F    8  dxz    Ryd( 3d)     0.00003       2.11900
   345    F    8  dxz    Ryd( 5d)     0.00001       8.82583
   346    F    8  dyz    Ryd( 4d)     0.00000       2.48283
   347    F    8  dyz    Ryd( 3d)     0.00002       1.63467
   348    F    8  dyz    Ryd( 5d)     0.00000       8.65526
   349    F    8  dx2y2  Ryd( 4d)     0.00134       3.93548
   350    F    8  dx2y2  Ryd( 3d)     0.00009       3.70370
   351    F    8  dx2y2  Ryd( 5d)     0.00000       9.04064
   352    F    8  dz2    Ryd( 4d)     0.00047       3.01662
   353    F    8  dz2    Ryd( 3d)     0.00002       2.50087
   354    F    8  dz2    Ryd( 5d)     0.00000       8.80012
   355    F    8  f(0)   Ryd( 4f)     0.00006       3.35033
   356    F    8  f(0)   Ryd( 5f)     0.00001       8.01530
   357    F    8  f(C1)  Ryd( 4f)     0.00007       3.53551
   358    F    8  f(C1)  Ryd( 5f)     0.00001       8.26603
   359    F    8  f(S1)  Ryd( 4f)     0.00002       3.31038
   360    F    8  f(S1)  Ryd( 5f)     0.00001       7.95245
   361    F    8  f(C2)  Ryd( 4f)     0.00010       3.41615
   362    F    8  f(C2)  Ryd( 5f)     0.00001       8.11883
   363    F    8  f(S2)  Ryd( 4f)     0.00000       3.38519
   364    F    8  f(S2)  Ryd( 5f)     0.00000       8.18791
   365    F    8  f(C3)  Ryd( 4f)     0.00009       3.63591
   366    F    8  f(C3)  Ryd( 5f)     0.00002       8.36176
   367    F    8  f(S3)  Ryd( 4f)     0.00011       3.63611
   368    F    8  f(S3)  Ryd( 5f)     0.00004       8.34430
 
   369    O    9  S      Cor( 1S)     1.99977     -19.33486
   370    O    9  S      Val( 2S)     1.70187      -1.01147
   371    O    9  S      Ryd( 4S)     0.00067       2.81150
   372    O    9  S      Ryd( 3S)     0.00021       1.78101
   373    O    9  S      Ryd( 5S)     0.00001       8.48104
   374    O    9  px     Val( 2p)     1.76877      -0.34922
   375    O    9  px     Ryd( 4p)     0.00153       1.34491
   376    O    9  px     Ryd( 3p)     0.00010       0.77451
   377    O    9  px     Ryd( 5p)     0.00004       4.71612
   378    O    9  py     Val( 2p)     1.63987      -0.35185
   379    O    9  py     Ryd( 4p)     0.00132       1.47780
   380    O    9  py     Ryd( 3p)     0.00009       0.70459
   381    O    9  py     Ryd( 5p)     0.00006       5.24967
   382    O    9  pz     Val( 2p)     1.46309      -0.29905
   383    O    9  pz     Ryd( 4p)     0.00058       1.01070
   384    O    9  pz     Ryd( 3p)     0.00002       0.54014
   385    O    9  pz     Ryd( 5p)     0.00001       4.17152
   386    O    9  dxy    Ryd( 3d)     0.00818       2.01593
   387    O    9  dxy    Ryd( 4d)     0.00011       3.21139
   388    O    9  dxy    Ryd( 5d)     0.00003       6.57507
   389    O    9  dxz    Ryd( 3d)     0.00210       1.43017
   390    O    9  dxz    Ryd( 4d)     0.00001       1.68380
   391    O    9  dxz    Ryd( 5d)     0.00001       6.42096
   392    O    9  dyz    Ryd( 3d)     0.00512       1.51721
   393    O    9  dyz    Ryd( 4d)     0.00004       1.72780
   394    O    9  dyz    Ryd( 5d)     0.00002       6.38532
   395    O    9  dx2y2  Ryd( 3d)     0.00636       1.79909
   396    O    9  dx2y2  Ryd( 4d)     0.00008       2.23445
   397    O    9  dx2y2  Ryd( 5d)     0.00005       6.49996
   398    O    9  dz2    Ryd( 3d)     0.00284       1.61278
   399    O    9  dz2    Ryd( 4d)     0.00008       2.48924
   400    O    9  dz2    Ryd( 5d)     0.00000       6.49723
   401    O    9  f(0)   Ryd( 4f)     0.00015       3.07341
   402    O    9  f(0)   Ryd( 5f)     0.00000       5.50839
   403    O    9  f(C1)  Ryd( 4f)     0.00008       3.21317
   404    O    9  f(C1)  Ryd( 5f)     0.00001       5.59599
   405    O    9  f(S1)  Ryd( 4f)     0.00011       3.50970
   406    O    9  f(S1)  Ryd( 5f)     0.00001       5.76214
   407    O    9  f(C2)  Ryd( 4f)     0.00009       3.03500
   408    O    9  f(C2)  Ryd( 5f)     0.00001       5.72210
   409    O    9  f(S2)  Ryd( 4f)     0.00031       3.12170
   410    O    9  f(S2)  Ryd( 5f)     0.00001       5.61879
   411    O    9  f(C3)  Ryd( 4f)     0.00039       4.05520
   412    O    9  f(C3)  Ryd( 5f)     0.00001       6.04751
   413    O    9  f(S3)  Ryd( 4f)     0.00050       3.53549
   414    O    9  f(S3)  Ryd( 5f)     0.00003       5.93222
 
   415    O   10  S      Cor( 1S)     1.99978     -19.46524
   416    O   10  S      Val( 2S)     1.67403      -1.04622
   417    O   10  S      Ryd( 3S)     0.00060       1.68384
   418    O   10  S      Ryd( 4S)     0.00005       2.81771
   419    O   10  S      Ryd( 5S)     0.00001       9.07010
   420    O   10  px     Val( 2p)     1.51381      -0.37771
   421    O   10  px     Ryd( 3p)     0.00072       1.17079
   422    O   10  px     Ryd( 4p)     0.00010       1.51702
   423    O   10  px     Ryd( 5p)     0.00003       4.55754
   424    O   10  py     Val( 2p)     1.65402      -0.41320
   425    O   10  py     Ryd( 3p)     0.00085       1.06866
   426    O   10  py     Ryd( 4p)     0.00009       1.21266
   427    O   10  py     Ryd( 5p)     0.00009       4.44728
   428    O   10  pz     Val( 2p)     1.83806      -0.42311
   429    O   10  pz     Ryd( 3p)     0.00111       0.84136
   430    O   10  pz     Ryd( 4p)     0.00001       0.92147
   431    O   10  pz     Ryd( 5p)     0.00001       3.73732
   432    O   10  dxy    Ryd( 3d)     0.00484       1.81828
   433    O   10  dxy    Ryd( 4d)     0.00014       2.62346
   434    O   10  dxy    Ryd( 5d)     0.00004       6.65046
   435    O   10  dxz    Ryd( 3d)     0.00066       1.18001
   436    O   10  dxz    Ryd( 4d)     0.00006       1.98109
   437    O   10  dxz    Ryd( 5d)     0.00001       6.36051
   438    O   10  dyz    Ryd( 3d)     0.00444       1.33174
   439    O   10  dyz    Ryd( 4d)     0.00003       1.77000
   440    O   10  dyz    Ryd( 5d)     0.00004       6.38977
   441    O   10  dx2y2  Ryd( 3d)     0.00558       1.92268
   442    O   10  dx2y2  Ryd( 4d)     0.00009       2.19487
   443    O   10  dx2y2  Ryd( 5d)     0.00006       6.87185
   444    O   10  dz2    Ryd( 3d)     0.00302       1.50462
   445    O   10  dz2    Ryd( 4d)     0.00015       2.44568
   446    O   10  dz2    Ryd( 5d)     0.00001       6.62213
   447    O   10  f(0)   Ryd( 4f)     0.00057       2.74037
   448    O   10  f(0)   Ryd( 5f)     0.00001       5.95401
   449    O   10  f(C1)  Ryd( 4f)     0.00022       3.32499
   450    O   10  f(C1)  Ryd( 5f)     0.00001       6.23006
   451    O   10  f(S1)  Ryd( 4f)     0.00017       3.28939
   452    O   10  f(S1)  Ryd( 5f)     0.00001       6.10223
   453    O   10  f(C2)  Ryd( 4f)     0.00003       2.83444
   454    O   10  f(C2)  Ryd( 5f)     0.00001       6.10003
   455    O   10  f(S2)  Ryd( 4f)     0.00012       2.77219
   456    O   10  f(S2)  Ryd( 5f)     0.00001       5.97737
   457    O   10  f(C3)  Ryd( 4f)     0.00015       4.43205
   458    O   10  f(C3)  Ryd( 5f)     0.00006       6.57732
   459    O   10  f(S3)  Ryd( 4f)     0.00005       3.67093
   460    O   10  f(S3)  Ryd( 5f)     0.00002       6.41025
 
   461    H   11  S      Val( 1S)     0.76546       0.05414
   462    H   11  S      Ryd( 4S)     0.00045       1.92418
   463    H   11  S      Ryd( 2S)     0.00015       0.71856
   464    H   11  S      Ryd( 3S)     0.00004       1.68407
   465    H   11  px     Ryd( 2p)     0.00059       0.98854
   466    H   11  px     Ryd( 4p)     0.00011       4.14234
   467    H   11  px     Ryd( 3p)     0.00006       2.82312
   468    H   11  py     Ryd( 2p)     0.00076       0.84297
   469    H   11  py     Ryd( 4p)     0.00017       4.26132
   470    H   11  py     Ryd( 3p)     0.00006       3.98651
   471    H   11  pz     Ryd( 2p)     0.00019       0.58832
   472    H   11  pz     Ryd( 4p)     0.00003       3.95649
   473    H   11  pz     Ryd( 3p)     0.00009       1.69875
   474    H   11  dxy    Ryd( 3d)     0.00010       2.30934
   475    H   11  dxy    Ryd( 4d)     0.00004       4.35117
   476    H   11  dxz    Ryd( 3d)     0.00001       1.68856
   477    H   11  dxz    Ryd( 4d)     0.00000       3.54038
   478    H   11  dyz    Ryd( 3d)     0.00002       1.73503
   479    H   11  dyz    Ryd( 4d)     0.00001       3.78838
   480    H   11  dx2y2  Ryd( 3d)     0.00004       2.27894
   481    H   11  dx2y2  Ryd( 4d)     0.00004       4.39224
   482    H   11  dz2    Ryd( 3d)     0.00004       2.18262
   483    H   11  dz2    Ryd( 4d)     0.00003       3.80097
 
   484    H   12  S      Val( 1S)     0.76757       0.03848
   485    H   12  S      Ryd( 4S)     0.00040       1.98558
   486    H   12  S      Ryd( 2S)     0.00014       0.65486
   487    H   12  S      Ryd( 3S)     0.00003       1.39378
   488    H   12  px     Ryd( 2p)     0.00062       0.96150
   489    H   12  px     Ryd( 4p)     0.00008       4.13598
   490    H   12  px     Ryd( 3p)     0.00007       2.58865
   491    H   12  py     Ryd( 2p)     0.00052       1.03547
   492    H   12  py     Ryd( 4p)     0.00015       4.50742
   493    H   12  py     Ryd( 3p)     0.00005       3.65251
   494    H   12  pz     Ryd( 2p)     0.00033       0.71521
   495    H   12  pz     Ryd( 4p)     0.00005       3.82343
   496    H   12  pz     Ryd( 3p)     0.00004       1.60999
   497    H   12  dxy    Ryd( 3d)     0.00013       2.25019
   498    H   12  dxy    Ryd( 4d)     0.00003       4.22023
   499    H   12  dxz    Ryd( 3d)     0.00003       1.78034
   500    H   12  dxz    Ryd( 4d)     0.00001       3.34188
   501    H   12  dyz    Ryd( 3d)     0.00001       1.89608
   502    H   12  dyz    Ryd( 4d)     0.00001       3.62982
   503    H   12  dx2y2  Ryd( 3d)     0.00005       2.21243
   504    H   12  dx2y2  Ryd( 4d)     0.00002       4.25461
   505    H   12  dz2    Ryd( 3d)     0.00002       2.07193
   506    H   12  dz2    Ryd( 4d)     0.00004       3.65051
 
   507    H   13  S      Val( 1S)     0.76673       0.03986
   508    H   13  S      Ryd( 4S)     0.00039       1.98762
   509    H   13  S      Ryd( 2S)     0.00014       0.65196
   510    H   13  S      Ryd( 3S)     0.00003       1.36932
   511    H   13  px     Ryd( 2p)     0.00065       0.96427
   512    H   13  px     Ryd( 4p)     0.00008       4.15657
   513    H   13  px     Ryd( 3p)     0.00007       2.66477
   514    H   13  py     Ryd( 2p)     0.00047       1.03087
   515    H   13  py     Ryd( 4p)     0.00014       4.45826
   516    H   13  py     Ryd( 3p)     0.00005       3.60812
   517    H   13  pz     Ryd( 2p)     0.00032       0.71538
   518    H   13  pz     Ryd( 4p)     0.00005       3.83509
   519    H   13  pz     Ryd( 3p)     0.00004       1.60127
   520    H   13  dxy    Ryd( 3d)     0.00014       2.24929
   521    H   13  dxy    Ryd( 4d)     0.00003       4.23059
   522    H   13  dxz    Ryd( 3d)     0.00003       1.76887
   523    H   13  dxz    Ryd( 4d)     0.00001       3.38283
   524    H   13  dyz    Ryd( 3d)     0.00001       1.86882
   525    H   13  dyz    Ryd( 4d)     0.00001       3.63151
   526    H   13  dx2y2  Ryd( 3d)     0.00004       2.16934
   527    H   13  dx2y2  Ryd( 4d)     0.00002       4.27188
   528    H   13  dz2    Ryd( 3d)     0.00002       2.05415
   529    H   13  dz2    Ryd( 4d)     0.00004       3.66616
 
   530    H   14  S      Val( 1S)     0.75981       0.06074
   531    H   14  S      Ryd( 4S)     0.00047       1.96810
   532    H   14  S      Ryd( 2S)     0.00016       0.65760
   533    H   14  S      Ryd( 3S)     0.00004       1.67496
   534    H   14  px     Ryd( 2p)     0.00055       1.00854
   535    H   14  px     Ryd( 4p)     0.00010       4.10314
   536    H   14  px     Ryd( 3p)     0.00006       2.75931
   537    H   14  py     Ryd( 2p)     0.00081       0.87335
   538    H   14  py     Ryd( 4p)     0.00016       4.24468
   539    H   14  py     Ryd( 3p)     0.00006       4.02236
   540    H   14  pz     Ryd( 2p)     0.00014       0.62685
   541    H   14  pz     Ryd( 4p)     0.00003       3.92971
   542    H   14  pz     Ryd( 3p)     0.00008       1.71410
   543    H   14  dxy    Ryd( 3d)     0.00009       2.29311
   544    H   14  dxy    Ryd( 4d)     0.00003       4.30111
   545    H   14  dxz    Ryd( 3d)     0.00002       1.70936
   546    H   14  dxz    Ryd( 4d)     0.00000       3.47795
   547    H   14  dyz    Ryd( 3d)     0.00001       1.78566
   548    H   14  dyz    Ryd( 4d)     0.00001       3.74697
   549    H   14  dx2y2  Ryd( 3d)     0.00006       2.29914
   550    H   14  dx2y2  Ryd( 4d)     0.00004       4.36338
   551    H   14  dz2    Ryd( 3d)     0.00004       2.18812
   552    H   14  dz2    Ryd( 4d)     0.00003       3.76062
 
   553    H   15  S      Val( 1S)     0.49448       0.12337
   554    H   15  S      Ryd( 4S)     0.00104       1.81256
   555    H   15  S      Ryd( 2S)     0.00016       1.04240
   556    H   15  S      Ryd( 3S)     0.00013       1.26065
   557    H   15  px     Ryd( 2p)     0.00029       2.59336
   558    H   15  px     Ryd( 4p)     0.00035       3.85958
   559    H   15  px     Ryd( 3p)     0.00003       3.08322
   560    H   15  py     Ryd( 2p)     0.00023       1.77155
   561    H   15  py     Ryd( 4p)     0.00003       3.12312
   562    H   15  py     Ryd( 3p)     0.00002       2.90705
   563    H   15  pz     Ryd( 2p)     0.00053       1.51063
   564    H   15  pz     Ryd( 4p)     0.00004       2.88264
   565    H   15  pz     Ryd( 3p)     0.00001       2.64931
   566    H   15  dxy    Ryd( 3d)     0.00005       1.26475
   567    H   15  dxy    Ryd( 4d)     0.00001       4.38372
   568    H   15  dxz    Ryd( 3d)     0.00010       1.11623
   569    H   15  dxz    Ryd( 4d)     0.00000       4.26075
   570    H   15  dyz    Ryd( 3d)     0.00005       1.12546
   571    H   15  dyz    Ryd( 4d)     0.00000       3.79185
   572    H   15  dx2y2  Ryd( 3d)     0.00007       1.85499
   573    H   15  dx2y2  Ryd( 4d)     0.00001       4.64619
   574    H   15  dz2    Ryd( 3d)     0.00011       1.62667
   575    H   15  dz2    Ryd( 4d)     0.00000       4.05721

 WARNING:  1 low occupancy (<1.9990e) core orbital  found on  C    4

 WARNING:  Population inversion found on atom  C    1
           Population inversion found on atom  C    2
           Population inversion found on atom  C    3
           Population inversion found on atom  C    4
           Population inversion found on atom  C    5
           Population inversion found on atom  C    6
           Population inversion found on atom  C    7
           Population inversion found on atom  F    8
           Population inversion found on atom  O    9
           Population inversion found on atom  O   10
           Population inversion found on atom  H   11
           Population inversion found on atom  H   12
           Population inversion found on atom  H   13
           Population inversion found on atom  H   14
           Population inversion found on atom  H   15


 Summary of Natural Population Analysis:                  
                                                          
                                       Natural Population 
                Natural  -----------------------------------------------
    Atom  No    Charge         Core      Valence    Rydberg      Total
 -----------------------------------------------------------------------
      C    1   -0.19665      1.99901     4.17119    0.02645     6.19665
      C    2   -0.14190      1.99922     4.12612    0.01655     6.14190
      C    3   -0.27978      1.99915     4.26247    0.01817     6.27978
      C    4    0.43850      1.99861     3.53830    0.02459     5.56150
      C    5   -0.27822      1.99914     4.26113    0.01795     6.27822
      C    6   -0.13155      1.99922     4.11572    0.01660     6.13155
      C    7    0.80436      1.99938     3.16267    0.03358     5.19564
      F    8   -0.33703      1.99993     7.32837    0.00873     9.33703
      O    9   -0.60477      1.99977     6.57360    0.03140     8.60477
      O   10   -0.70398      1.99978     6.67991    0.02429     8.70398
      H   11    0.23149      0.00000     0.76546    0.00305     0.76851
      H   12    0.22961      0.00000     0.76757    0.00282     0.77039
      H   13    0.23048      0.00000     0.76673    0.00279     0.76952
      H   14    0.23718      0.00000     0.75981    0.00300     0.76282
      H   15    0.50226      0.00000     0.49448    0.00326     0.49774
 =======================================================================
   * Total *    0.00000     19.99322    51.77354    0.23324    72.00000

                                 Natural Population      
 --------------------------------------------------------
   Core                      19.99322 ( 99.9661% of  20)
   Valence                   51.77354 ( 99.5645% of  52)
   Natural Minimal Basis     71.76676 ( 99.6761% of  72)
   Natural Rydberg Basis      0.23324 (  0.3239% of  72)
 --------------------------------------------------------

    Atom  No          Natural Electron Configuration
 ----------------------------------------------------------------------------
      C    1      [core]2S( 0.93)2p( 3.24)4p( 0.01)4f( 0.01)
      C    2      [core]2S( 0.96)2p( 3.16)4p( 0.01)
      C    3      [core]2S( 0.98)2p( 3.28)5p( 0.01)
      C    4      [core]2S( 0.87)2p( 2.67)4p( 0.01)
      C    5      [core]2S( 0.98)2p( 3.28)5p( 0.01)
      C    6      [core]2S( 0.97)2p( 3.15)
      C    7      [core]2S( 0.79)2p( 2.37)4p( 0.01)4d( 0.01)5p( 0.01)
      F    8      [core]2S( 1.83)2p( 5.50)
      O    9      [core]2S( 1.70)2p( 4.87)3d( 0.02)
      O   10      [core]2S( 1.67)2p( 5.01)3d( 0.02)
      H   11            1S( 0.77)
      H   12            1S( 0.77)
      H   13            1S( 0.77)
      H   14            1S( 0.76)
      H   15            1S( 0.49)


 NATURAL BOND ORBITAL ANALYSIS:

                       Occupancies       Lewis Structure    Low   High
           Occ.    -------------------  -----------------   occ   occ
  Cycle   Thresh.   Lewis   Non-Lewis     CR  BD  3C  LP    (L)   (NL)   Dev
 =============================================================================
   1(1)    1.90    68.07469   3.92531     10  17   0   9     8      6    0.46
   2(2)    1.90    68.07469   3.92531     10  17   0   9     8      6    0.46
   3(1)    1.80    68.42473   3.57527     10  16   0  10     3      4    0.46
   4(2)    1.80    68.42473   3.57527     10  16   0  10     3      4    0.46
   5(1)    1.70    68.42473   3.57527     10  16   0  10     3      4    0.46
   6(2)    1.70    68.42473   3.57527     10  16   0  10     3      4    0.46
   7(1)    1.60    69.68861   2.31139     10  18   0   8     1      4    0.40
   8(2)    1.60    70.22566   1.77434     10  19   0   7     0      4    0.45
   9(3)    1.60    70.21006   1.78994     10  19   0   7     0      4    0.46
  10(4)    1.60    69.68861   2.31139     10  18   0   8     1      4    0.40
  11(5)    1.60    70.22566   1.77434     10  19   0   7     0      4    0.45
  12(6)    1.60    70.21006   1.78994     10  19   0   7     0      4    0.46
  13(7)    1.60    69.68861   2.31139     10  18   0   8     1      4    0.40
  14(8)    1.60    70.22566   1.77434     10  19   0   7     0      4    0.45
  15(9)    1.60    70.21006   1.78994     10  19   0   7     0      4    0.46
  16(1)    1.50    69.73604   2.26396     10  18   0   8     0      5    0.73
  17(2)    1.50    69.73604   2.26396     10  18   0   8     0      5    0.73
  18(1)    1.60    70.22566   1.77434     10  19   0   7     0      4    0.45
 -----------------------------------------------------------------------------

 Structure accepted: RESONANCE keyword permits strongly delocalized structure

 WARNING:  1 low occupancy (<1.9990e) core orbital  found on  C    4

 --------------------------------------------------------
   Core                     19.99324 ( 99.966% of  20)
   Valence Lewis            50.23242 ( 96.601% of  52)
  ==================       ============================
   Total Lewis              70.22566 ( 97.536% of  72)
  -----------------------------------------------------
   Valence non-Lewis         1.64239 (  2.281% of  72)
   Rydberg non-Lewis         0.13195 (  0.183% of  72)
  ==================       ============================
   Total non-Lewis           1.77434 (  2.464% of  72)
 --------------------------------------------------------


       (Occupancy)   Bond orbital/ Coefficients/ Hybrids
 ---------------------------------------------------------------------------------
     1. (1.97779) BD ( 1) C   1 - C   2  
                ( 51.17%)   0.7153* C   1 s( 35.67%)p 1.80( 64.19%)d 0.00(  0.07%)
                                                  f 0.00(  0.06%)
                                           -0.0001  0.5972 -0.0092  0.0002 -0.0003
                                           -0.3600 -0.0086 -0.0016  0.0012 -0.7156
                                            0.0153 -0.0021  0.0008  0.0001  0.0000
                                            0.0000  0.0000  0.0148  0.0083  0.0012
                                            0.0000  0.0000  0.0000  0.0000  0.0000
                                            0.0000 -0.0092 -0.0034  0.0021 -0.0175
                                           -0.0016  0.0042  0.0000  0.0000  0.0074
                                            0.0061  0.0134  0.0100  0.0000  0.0000
                                            0.0000  0.0000  0.0145  0.0041 -0.0040
                                            0.0000
                ( 48.83%)   0.6988* C   2 s( 35.20%)p 1.84( 64.66%)d 0.00(  0.11%)
                                                  f 0.00(  0.02%)
                                            0.0000  0.5933 -0.0043  0.0018 -0.0007
                                            0.4093 -0.0183 -0.0029  0.0017  0.6919
                                            0.0015  0.0010 -0.0015 -0.0002  0.0000
                                            0.0000  0.0000  0.0222  0.0037 -0.0014
                                            0.0000  0.0000  0.0000  0.0000  0.0000
                                            0.0000 -0.0134 -0.0083 -0.0006 -0.0187
[...]
 ! D30   D(9,7,10,15)           -0.0199         -DE/DX =    0.0                 !
 --------------------------------------------------------------------------------
 GradGradGradGradGradGradGradGradGradGradGradGradGradGradGradGradGradGrad


 ----------------------------------------------------------------------

 Electric dipole moment (input orientation):
 (Debye = 10**-18 statcoulomb cm , SI units = C m)
                  (au)            (Debye)         (10**-30 SI)
   Tot        0.551257D+00      0.140116D+01      0.467375D+01
   x          0.413420D+00      0.105081D+01      0.350512D+01
   y         -0.361975D+00     -0.920048D+00     -0.306895D+01
   z          0.440789D-01      0.112038D+00      0.373717D+00

 Dipole polarizability, Alpha (input orientation).
 (esu units = cm**3 , SI units = C**2 m**2 J**-1)
 Alpha(0;0):
               (au)            (10**-24 esu)      (10**-40 SI)
   iso        0.877969D+02      0.130102D+02      0.144758D+02
   aniso      0.585280D+02      0.867295D+01      0.964996D+01
   xx         0.103311D+03      0.153091D+02      0.170337D+02
   yx         0.112820D+02      0.167182D+01      0.186015D+01
   yy         0.106902D+03      0.158412D+02      0.176257D+02
   zx        -0.401158D+01     -0.594454D+00     -0.661419D+00
   zy        -0.981765D+01     -0.145483D+01     -0.161871D+01
   zz         0.531780D+02      0.788016D+01      0.876786D+01

 ----------------------------------------------------------------------

 Dipole orientation:
     6          0.83402654          0.73284755          0.08113420
     6         -0.14754373         -0.09278587          2.37669175
     6         -2.14910563         -1.77774525          2.41799783
     6         -3.12622236         -2.60095957          0.13995855
     6         -2.18853789         -1.81226561         -2.16914530
     6         -0.18953672         -0.12945319         -2.18300432
     6          2.97568161          2.53562934         -0.05078922
     9         -5.06054804         -4.22930223          0.16922412
     8          3.89756425          3.31204152         -1.97499772
     8          3.82159836          3.24937633          2.24211314
     1          0.65812702          0.58593867          4.12479143
     1         -2.95687680         -2.45726276          4.16491464
     1         -3.02643369         -2.51816565         -3.89131023
     1          0.60732112          0.54084619         -3.94035034
     1          5.20107607          4.41122230          1.95703858

 Electric dipole moment (dipole orientation):
 (Debye = 10**-18 statcoulomb cm , SI units = C m)
                  (au)            (Debye)         (10**-30 SI)
   Tot        0.551257D+00      0.140116D+01      0.467375D+01
   x          0.000000D+00      0.000000D+00      0.000000D+00
   y          0.000000D+00      0.000000D+00      0.000000D+00
   z          0.551257D+00      0.140116D+01      0.467375D+01

 Dipole polarizability, Alpha (dipole orientation).
 (esu units = cm**3 , SI units = C**2 m**2 J**-1)
 Alpha(0;0):
               (au)            (10**-24 esu)      (10**-40 SI)
   iso        0.877969D+02      0.130102D+02      0.144758D+02
   aniso      0.585280D+02      0.867295D+01      0.964996D+01
   xx         0.903896D+02      0.133943D+02      0.149032D+02
   yx         0.328586D+02      0.486914D+01      0.541764D+01
   yy         0.790243D+02      0.117102D+02      0.130293D+02
   zx        -0.850788D+00     -0.126074D+00     -0.140276D+00
   zy        -0.704008D+00     -0.104323D+00     -0.116075D+00
   zz         0.939769D+02      0.139259D+02      0.154947D+02

 ----------------------------------------------------------------------
 Unable to Open any file for archive entry.
 1\1\GINC-AE29\Freq\RM062X\Aug-CC-pVTZ\C7H5F1O2\AKJ\27-Apr-2023\0\\#N G
 eom=AllCheck Guess=TCheck SCRF=Check GenChk RM062X/Aug-CC-pVTZ Freq\\C
 YH-182-A_eq00002\\0,1\C,0.4205303276,0.406033251,-0.0729121759\C,0.883
 4115301,-0.8909430044,0.1268793559\C,-0.0143393109,-1.9239272107,0.337
 4850478\C,-1.3648256957,-1.6298437326,0.3428252459\C,-1.8531250955,-0.
 350493285,0.1470414883\C,-0.9456490187,0.6716532843,-0.0621325942\C,1.
 3462745608,1.5417654574,-0.302009187\F,-2.2366433373,-2.624421394,0.54
 59110173\O,1.003754311,2.67965653,-0.4795032088\O,2.6429749164,1.17605
 88153,-0.2926896552\H,1.9452444948,-1.0881888006,0.1169490152\H,0.3101
 383028,-2.9418753891,0.4958594989\H,-2.9193947702,-0.1786742892,0.1614
 152336\H,-1.2792573503,1.6876615063,-0.2198203418\H,3.1600061349,1.977
 3382814,-0.4484987399\\Version=ES64L-G16RevC.01\State=1-A\HF=-520.0717
 663\RMSD=2.936e-09\RMSF=7.765e-05\ZeroPoint=0.1084082\Thermal=0.116277
 8\ETot=-519.9554885\HTot=-519.9545443\GTot=-519.9966116\Dipole=0.41341
 98,-0.3619747,0.0440789\DipoleDeriv=-0.3794384,-0.2383392,0.0532772,-0
 .2298978,-0.4296364,0.0722137,0.0518843,0.0726213,-0.0708726,0.0800827
 ,0.0111761,-0.0083291,0.1507857,0.1979383,-0.0527072,-0.031806,-0.0469
 837,-0.0691769,-0.3636007,-0.2567492,0.05233,-0.0421585,-0.0291649,-0.
 01711,0.0161625,-0.008387,-0.1400732,0.8876304,0.6043106,-0.1327347,0.
 5900452,1.0319473,-0.1763358,-0.1303352,-0.176921,0.1631839,0.0173714,
 0.0098724,-0.0079169,-0.1775183,-0.3820839,0.0486279,0.0236719,0.04100
 64,-0.1442651,0.1663564,0.1559972,-0.0361499,0.0048001,0.0870504,-0.02
 76852,-0.0106377,-0.0337726,-0.0698843,1.932167,0.2645272,-0.1092055,0
 .2137623,1.840681,-0.2619314,-0.1005455,-0.263906,0.3866868,-0.7415307
 ,-0.6221125,0.1294464,-0.616588,-0.9070623,0.1549283,0.1285252,0.15516
 47,-0.1679444,-0.7137942,-0.0570623,0.0234283,-0.0084767,-1.3978306,0.
 173181,0.0152895,0.1748597,-0.4026319,-1.4769578,0.0067057,0.0441177,0
 .010088,-0.4653453,0.0171401,0.0432866,0.0173179,-0.3658887,0.0253429,
 0.0247894,0.0000004,0.0269183,0.0981187,0.0039396,-0.0003616,0.0040279
 ,0.1272983,0.0729027,0.0180749,0.0002462,0.0076615,0.0002536,0.0255898
 ,0.001993,0.025164,0.149613,-0.0036637,-0.0042765,0.0071217,0.0059711,
 0.0781843,0.0125033,0.0053903,0.0129117,0.1514221,0.0949201,0.02486,-0
 .0029031,0.0380403,0.0517059,0.0110737,-0.0051218,0.0116063,0.1247979,
 0.402212,0.0582263,-0.0127286,0.0265669,0.2252439,0.0165722,-0.0073957
 ,0.0152902,0.3277351\Polar=103.3110656,11.2820006,106.9017558,-4.01157
 54,-9.8176482,53.177952\Quadrupole=5.519682,-4.1618887,-1.3577933,-1.4
 67434,-0.0279818,0.5473064\PG=C01 [X(C7H5F1O2)]\NImag=0\\0.69000245,-0
 .03310767,0.67549553,-0.01661570,-0.08825209,0.15942355,-0.15345961,0.
 10148838,-0.01350217,0.76077380,0.03633098,-0.29543619,0.03738551,-0.0
 0812393,0.66154622,-0.00252151,0.03473398,-0.07065314,-0.02367523,-0.0
 8675995,0.16044650,0.06022109,-0.05431431,0.00700276,-0.22492377,-0.06
 858950,0.01822119,0.69081178,0.00044269,-0.05098246,0.00981548,-0.1438
 6767,-0.25584528,0.03866614,-0.02009682,0.75512835,-0.00222464,0.01204
 287,0.00541451,0.03090807,0.03560338,-0.06840049,-0.01949400,-0.104881
 61,0.14647920,-0.04819779,0.04558285,-0.00594870,-0.04682764,-0.082371
 99,0.01579943,-0.31600834,0.10939504,-0.00841510,0.71062582,0.04578674
 ,-0.03401281,0.00293660,-0.01322939,0.06429859,-0.01025084,0.01985879,
 -0.14496502,0.01192084,-0.01490191,0.69123644,-0.00598302,0.00294530,-
 0.00579705,0.00414546,-0.00744053,0.00137602,0.00667755,0.00828044,-0.
 07111771,-0.01976262,-0.08846993,0.17847462,-0.04150992,-0.01464489,0.
 00442784,-0.00265016,-0.01354116,0.00231651,-0.00017155,0.03310820,-0.
 00521045,-0.16858491,0.12988681,-0.01785703,0.77702852,-0.06906124,0.0
 4887347,-0.00431090,-0.01095565,-0.07364860,0.01255444,0.08663598,0.01
 678161,-0.00484492,0.04028198,-0.28655573,0.03497799,-0.00490864,0.672
 68958,0.01360056,-0.00652164,0.00719661,0.00188057,0.01266029,-0.00401
 863,-0.01423249,-0.00266845,0.00996673,-0.00275389,0.03133369,-0.07449
 275,-0.02553453,-0.09152435,0.14496196,-0.31456053,0.01273317,0.007948
 72,-0.00601909,0.09218876,-0.01503002,-0.07067279,-0.02328546,0.006719
 38,0.07741411,-0.06496812,0.00781572,-0.23282440,-0.07192222,0.0191071
 2,0.67990960,0.07833641,-0.13340830,0.00811977,0.03712878,0.01239076,-
 0.00250158,-0.01990192,-0.00735551,0.00171776,0.00361819,-0.05645891,0
 .00942538,-0.14653756,-0.25421111,0.03853021,-0.01083787,0.74551853,-0
 .00310995,0.01078551,-0.06805094,-0.00574837,-0.00474135,0.00753682,0.
 00614815,0.00185541,-0.00252731,-0.00374387,0.01221411,-0.00157083,0.0
 3168584,0.03549781,-0.06823143,-0.01989157,-0.10065227,0.16352922,-0.1
 4951804,-0.05906398,0.01268419,0.01730371,-0.00586512,0.00023846,0.004
 90635,0.00751160,-0.00113873,-0.00676202,-0.00110625,0.00044867,-0.006
 09914,0.00432243,-0.00017551,-0.02700486,-0.02672054,0.00563257,0.6368
 4812,-0.04781283,-0.15534664,0.01421266,-0.01678251,-0.02767856,0.0051
 6470,0.00653818,-0.00302792,0.00160290,-0.00131544,-0.00736516,0.00124
 176,0.00622927,0.00758932,-0.00026744,-0.01918895,0.00923491,-0.000653
 14,-0.08897901,0.98007104,0.01076676,0.01464752,-0.08554673,0.00208418
 ,0.00471771,-0.00196867,-0.00097383,0.00156589,0.00783998,0.00048282,0
 .00123202,-0.00054333,-0.00049521,-0.00018822,0.00756651,0.00435871,-0
 .00034276,0.00062803,-0.00197089,-0.12453396,0.23961027,-0.00095511,-0
 .00674538,0.00115151,-0.00374013,0.01174870,-0.00152885,-0.04333594,-0
 .05069045,0.01067820,-0.19008285,-0.12752972,0.02732939,0.00913535,-0.
 00275476,0.00046449,-0.00213996,0.00184101,0.00007260,0.00445638,0.004
 95196,-0.00106591,0.22585291,-0.00712758,-0.00254705,0.00061921,0.0015
 8681,-0.00015621,0.00120105,-0.01024557,0.00163024,0.00168578,-0.12746
 701,-0.22307289,0.03492789,-0.04328064,-0.04943961,0.01163281,0.012161
 92,-0.00171131,0.00101939,0.00502515,0.00556172,-0.00135024,0.17578772
 ,0.27100874,0.00121600,0.00060378,-0.00074219,0.00018349,0.00078797,0.
 00720849,0.00386051,0.00332996,0.00844148,0.02731873,0.03493047,-0.053
 59662,0.00729513,0.00998443,0.00715796,-0.00166681,0.00143865,0.007092
 24,-0.00107852,-0.00134752,-0.00096851,-0.03779897,-0.04862580,0.03465
 385,0.01790758,-0.01770571,0.00312763,-0.00417449,-0.00037279,0.000355
 17,0.00002602,-0.00218664,0.00029634,0.00139122,-0.00051687,0.00003294
 ,0.00227555,0.00025267,-0.00016805,-0.00468822,-0.00126960,0.00041428,
 -0.16022797,0.16045208,-0.02376969,-0.00063121,-0.00101840,0.00020512,
 0.18274479,-0.00042956,-0.05803865,0.01340846,-0.00766318,0.00243988,0
 .00040820,-0.00294021,-0.00250954,0.00024742,0.00367788,0.00203589,-0.
 00048260,-0.00088024,-0.00179541,0.00020383,0.00909332,-0.00187927,-0.
 00000751,0.15227972,-0.69395950,0.09697093,-0.00321985,-0.00300537,0.0
 0066951,-0.21914684,0.79372904,0.00022624,0.01412194,0.01914602,0.0015
 8035,0.00011178,0.00293381,0.00042358,0.00021454,-0.00181166,-0.000673
 53,-0.00031097,0.00014028,0.00002248,0.00015663,-0.00082777,-0.0013285
 6,0.00041189,0.00024456,-0.02239560,0.09662772,-0.09613074,0.00057554,
 0.00057950,0.00006923,0.03085133,-0.11889827,0.05298034,-0.04311088,-0
 .00200562,0.00255984,-0.00407700,0.00226108,-0.00019481,-0.00122104,-0
 .00087953,0.00016899,0.00112505,0.00295308,-0.00054252,-0.00117750,-0.
 00217227,0.00039620,0.00228580,-0.00511842,0.00083039,-0.27169741,0.03
 873356,0.00178297,-0.00209308,-0.00291284,0.00058007,-0.04540513,0.070
 55537,-0.00883816,0.53049717,-0.03006689,0.00998396,0.00154434,-0.0014
 2773,-0.00431807,0.00086723,-0.00007788,0.00138205,-0.00035017,-0.0004
 8026,0.00118382,-0.00017561,-0.00232033,-0.00009865,0.00003493,-0.0004
 5822,-0.00497441,0.00111054,0.01071237,-0.13155163,0.01061447,-0.00062
 485,-0.00057026,0.00013799,0.08181598,-0.02969261,0.00670146,0.1210570
 3,0.53335463,0.00729871,0.00041414,0.01156801,0.00042482,0.00071857,0.
 00035169,0.00003336,-0.00031795,-0.00066063,0.00003677,-0.00031448,0.0
 0007775,0.00041999,0.00002839,-0.00047552,0.00004547,0.00129795,0.0012
 8263,0.00649132,0.00948788,-0.06781602,0.00019383,0.00023023,0.0000508
 2,-0.01072998,0.00715263,0.02899256,-0.04027182,-0.08828271,0.05463911
 ,-0.00624129,0.00085146,0.00028366,-0.33903337,0.05521935,0.00281095,-
 0.01327004,0.00488374,-0.00007209,0.00021521,-0.00251387,0.00074814,0.
 00053679,-0.00059457,0.00003347,0.00144023,0.00180047,-0.00011870,-0.0
 0084951,0.00029778,-0.00018415,-0.00110477,-0.00006803,0.00003916,0.00
 020255,0.00008805,0.00000253,-0.00129487,-0.00314442,0.00059074,0.3585
 3972,0.02834704,0.00055997,-0.00052805,0.05319538,-0.06848590,0.002465
 76,-0.02392246,0.00858559,0.00040165,-0.00240336,-0.00256697,0.0019120
 5,-0.00056530,-0.00113195,0.00002736,0.00155361,-0.00552993,0.00187870
 ,0.00343819,0.00030638,-0.00088853,-0.00187272,-0.00020242,0.00003906,
 -0.00098937,0.00077448,0.00001561,-0.00230497,-0.00139226,0.00036317,-
 0.05642850,0.06807196,-0.00435006,0.00058809,0.00434549,0.00315104,0.0
 0238564,-0.04155553,0.00478284,-0.00077050,0.00513106,0.00073009,0.001
 91616,0.00784434,0.00002871,0.00002905,-0.00111198,-0.00007739,0.00186
 864,0.00567848,-0.00071244,-0.00076050,-0.00398277,0.00034344,-0.00003
 420,-0.00043013,0.00018385,-0.00002869,0.00062548,0.00044915,0.0003976
 3,0.00012585,-0.00396693,-0.00461532,0.02801711,-0.00227198,-0.0033943
 8,0.00096341,0.01185008,-0.02016674,0.00303080,-0.08687315,0.08472971,
 -0.01220183,-0.00357205,0.03073340,-0.00480639,-0.00584273,0.00048916,
 0.00035865,-0.00144505,-0.00094865,0.00018686,0.00113194,-0.00057295,0
 .00008015,0.00292760,-0.00104716,-0.00012208,-0.00032870,-0.00057848,0
 .00009495,-0.00018730,0.00008033,-0.00000677,0.00082162,0.00069674,-0.
 00032992,0.08397485,-0.00374286,-0.00069684,0.00150756,0.00844169,-0.0
 1507325,0.00266829,0.08647829,-0.31396049,0.04337625,-0.00088994,-0.00
 387943,0.00163716,0.00085670,0.00133386,0.00058468,-0.00037656,0.00050
 114,-0.00020115,0.00116559,-0.00006909,0.00008564,0.00017486,0.0009761
 3,-0.00091642,-0.00028079,-0.00060379,0.00004821,-0.00028747,-0.000012
 57,0.00001066,-0.00006478,0.00073934,-0.00086402,-0.09144215,0.3309023
 5,0.00102138,0.00149328,0.00704958,-0.00179107,0.00383155,0.00222148,-
 0.01249639,0.04344719,-0.04255272,0.00052362,0.00035168,0.00553915,0.0
 0029696,0.00059966,0.00489670,0.00009053,-0.00017792,-0.00075683,-0.00
 021305,0.00015601,0.00070132,-0.00032826,-0.00086693,-0.00425947,0.000
 04511,0.00006063,-0.00039612,0.00005529,-0.00000416,-0.00001942,-0.000
 20134,-0.00089494,-0.00424315,0.01300516,-0.04787779,0.03231501,0.0000
 9966,-0.00333042,0.00086562,0.00067965,-0.00012473,-0.00003845,0.00093
 988,0.00181444,-0.00013982,-0.00835730,-0.00158066,0.00083266,-0.34052
 640,0.05032558,0.00388836,-0.01332217,0.00478036,-0.00014758,-0.000262
 53,0.00093493,-0.00012383,0.00128212,-0.00003423,-0.00022349,-0.000003
 29,-0.00028893,0.00004947,-0.00036269,-0.00028766,0.00005500,-0.000080
 56,0.00002366,-0.00003008,-0.00026483,-0.00008910,0.00003075,0.3594371
 1,-0.00305012,-0.00295575,0.00190032,-0.00064963,-0.00156667,0.0001584
 6,0.00145828,-0.00523072,0.00166936,0.03000953,0.00072005,-0.00040174,
 0.04851868,-0.06650218,0.00314499,-0.02374081,0.00955173,-0.00016143,-
 0.00081946,0.00112872,-0.00006134,-0.00128129,0.00260819,-0.00112198,0
 .00012224,-0.00026400,0.00004253,-0.00047188,-0.00041565,0.00005544,-0
 .00000961,0.00006476,-0.00013230,0.00142109,-0.00007024,-0.00002542,-0
 .05212973,0.06213817,0.00081841,0.00191098,0.00722477,0.00004999,0.000
 13722,-0.00080851,-0.00007971,0.00165508,0.00475029,-0.00449156,0.0008
 8232,0.00560809,0.00419240,0.00307167,-0.03683105,0.00465993,-0.001320
 77,0.00290193,0.00017171,-0.00013272,0.00058083,-0.00001346,-0.0011728
 5,-0.00415974,-0.00001971,0.00005927,0.00000952,0.00008619,0.00004816,
 -0.00021091,-0.00002449,-0.00013368,-0.00069915,-0.00022382,0.00003602
 ,0.00012500,-0.00480505,-0.00413766,0.02591201,-0.00373223,0.02913415,
 -0.00454928,-0.00609336,0.00038485,0.00041311,-0.00092873,-0.00076974,
 0.00012337,-0.00212458,-0.00264273,0.00086819,0.01089157,-0.02052601,0
 .00323021,-0.08771936,0.08531139,-0.01251297,-0.00128500,0.00382164,-0
 .00075621,0.00002703,-0.00176071,0.00027694,0.00109716,-0.00211367,0.0
 0030179,0.00137301,-0.00082396,0.00008796,-0.00027070,0.00158116,-0.00
 024061,0.00007218,0.00003496,-0.00003517,0.00078832,0.00072932,-0.0003
 3722,0.08810678,0.00228858,-0.00195560,0.00110657,0.00066577,0.0015992
 1,0.00065681,-0.00078846,0.00033461,-0.00020705,-0.00274574,-0.0002941
 0,0.00155530,0.00794298,-0.01418318,0.00295107,0.08701147,-0.31196971,
 0.04199926,-0.00058941,-0.00092956,-0.00050116,0.00010303,-0.00123605,
 0.00012665,-0.00202585,-0.00064621,0.00015192,0.00058232,-0.00008739,0
 .00000969,-0.00009260,0.00001054,0.00006382,0.00001164,-0.00009215,-0.
 00009417,-0.00004687,0.00077404,-0.00088380,-0.09232799,0.32863607,-0.
 00002622,0.00001562,0.00516111,0.00036566,0.00066802,0.00553031,0.0001
 2696,-0.00020762,-0.00105458,0.00088510,0.00155162,0.00797418,-0.00156
 910,0.00410815,0.00461079,-0.01279754,0.04206766,-0.04837976,-0.000012
 00,-0.00067920,-0.00392789,-0.00003712,0.00020249,-0.00049199,0.000287
 38,0.00015488,-0.00027204,-0.00014958,0.00006653,0.00010446,0.00004157
 ,-0.00000429,0.00036549,-0.00003122,-0.00009510,-0.00063072,-0.0002063
 3,-0.00091558,-0.00431881,0.01310854,-0.04695971,0.03514530,-0.0046734
 0,0.00452233,-0.00039932,0.00039138,0.00102224,-0.00019675,0.00050023,
 -0.00010911,0.00000233,-0.00025393,-0.00022928,0.00005285,-0.00048109,
 0.00058757,-0.00009516,-0.00065332,-0.00148206,0.00030230,-0.04094002,
 -0.04730773,0.00978411,0.00040165,0.00040058,-0.00008527,0.00981414,0.
 00156664,-0.00089240,-0.16465412,-0.17395350,0.03533060,0.00038898,-0.
 00034909,0.00003832,0.00000753,0.00002157,-0.00000351,-0.00004697,-0.0
 0010663,0.00001640,-0.00020209,0.00001115,0.00001390,0.20040103,0.0028
 6630,0.00046737,0.00053454,0.00019287,-0.00006595,-0.00003269,-0.00009
 239,0.00003450,0.00001555,0.00001016,-0.00030377,0.00006715,0.00013613
 ,0.00029858,-0.00012197,0.00003598,0.00030137,0.00005612,-0.00131128,0
 .01603597,-0.00196797,0.00011173,0.00015614,-0.00003676,0.00286990,-0.
 00658495,0.00002552,-0.21998944,-0.37279095,0.06914639,-0.00022447,0.0
 0019640,-0.00004350,-0.00001155,0.00000506,0.00000134,0.00003338,0.000
 01956,-0.00001925,-0.00003267,0.00003948,0.00002653,0.21540534,0.36219
 118,-0.00011697,0.00047073,0.00426039,-0.00005679,-0.00006581,-0.00020
 015,-0.00000047,0.00001601,0.00010185,0.00001270,0.00007671,0.00008384
 ,-0.00001952,-0.00013984,-0.00036815,0.00004632,0.00011739,0.00062320,
 0.00202984,-0.00011915,0.00395771,-0.00003643,-0.00004834,-0.00002545,
 -0.00111172,0.00008133,-0.00570348,0.04308781,0.06728935,-0.02801038,0
 .00001748,-0.00003857,-0.00011058,0.00000204,0.00000002,0.00001020,-0.
 00000725,-0.00001365,-0.00008428,0.00002135,0.00002481,0.00018414,-0.0
 4386839,-0.06765100,0.02528112\\-0.00012692,-0.00016274,0.00006324,-0.
 00001621,0.00021082,-0.00003136,0.00011529,-0.00010426,0.00001072,-0.0
 0012632,-0.00006758,0.00001644,-0.00013219,-0.00000055,0.00000420,0.00
 012885,0.00006312,-0.00001275,-0.00010050,0.00004524,-0.00010955,0.000
 07358,0.00008234,-0.00001618,0.00001814,-0.00005539,0.00004923,0.00003
 047,-0.00012671,0.00005182,0.00006285,-0.00002379,0.00000191,-0.000016
 62,0.00002532,-0.00000433,0.00001838,-0.00002473,0.00000229,-0.0000249
 8,0.00000990,-0.00000028,0.00009618,0.00012900,-0.00002539\\\@
 The archive entry for this job was punched.


            ARSENIC

 FOR SMELTER FUMES HAVE I BEEN NAMED,
    I AM AN EVIL POISONOUS SMOKE...
 BUT WHEN FROM POISON I AM FREED,
    THROUGH ART AND SLEIGHT OF HAND,
 THEN CAN I CURE BOTH MAN AND BEAST,
    FROM DIRE DISEASE OFTTIMES DIRECT THEM;
 BUT PREPARE ME CORRECTLY, AND TAKE GREAT CARE
    THAT YOU FAITHFULLY KEEP WATCHFUL GUARD OVER ME;
 FOR ELSE I AM POISON, AND POISON REMAIN,
    THAT PIERCES THE HEART OF MANY A ONE.

 ATTRIBUTED TO THE PROBABLY MYTHICAL 15TH
 CENTURY MONK, BASILIUS VALENTINUS
 Job cpu time:       0 days  8 hours 53 minutes 20.5 seconds.
 Elapsed time:       0 days  0 hours 26 minutes 40.6 seconds.
 File lengths (MBytes):  RWF=    371 Int=      0 D2E=      0 Chk=     27 Scr=      1
 Normal termination of Gaussian 16 at Thu Apr 27 11:49:44 2023.
