 Entering Gaussian System, Link 0=g16
 Initial command:
 /usr/local/gaussian16c01/g16/l1.exe "/scr/akj/Gau-79466.inp" -scrdir="/scr/akj/"
 Entering Link 1 = /usr/local/gaussian16c01/g16/l1.exe PID=     79467.
  
 Copyright (c) 1988-2019, Gaussian, Inc.  All Rights Reserved.
  
 This is part of the Gaussian(R) 16 program.  It is based on
 the Gaussian(R) 09 system (copyright 2009, Gaussian, Inc.),
 the Gaussian(R) 03 system (copyright 2003, Gaussian, Inc.),
 the Gaussian(R) 98 system (copyright 1998, Gaussian, Inc.),
 the Gaussian(R) 94 system (copyright 1995, Gaussian, Inc.),
 the Gaussian 92(TM) system (copyright 1992, Gaussian, Inc.),
 the Gaussian 90(TM) system (copyright 1990, Gaussian, Inc.),
 the Gaussian 88(TM) system (copyright 1988, Gaussian, Inc.),
 the Gaussian 86(TM) system (copyright 1986, Carnegie Mellon
 University), and the Gaussian 82(TM) system (copyright 1983,
 Carnegie Mellon University). Gaussian is a federally registered
 trademark of Gaussian, Inc.
  
 This software contains proprietary and confidential information,
 including trade secrets, belonging to Gaussian, Inc.
  
 This software is provided under written license and may be
 used, copied, transmitted, or stored only in accord with that
 written license.
  
 The following legend is applicable only to US Government
 contracts under FAR:
  
                    RESTRICTED RIGHTS LEGEND
  
 Use, reproduction and disclosure by the US Government is
 subject to restrictions as set forth in subparagraphs (a)
 and (c) of the Commercial Computer Software - Restricted
 Rights clause in FAR 52.227-19.
  
 Gaussian, Inc.
 340 Quinnipiac St., Bldg. 40, Wallingford CT 06492
  
  
 ---------------------------------------------------------------
 Warning -- This program may not be used in any manner that
 competes with the business of Gaussian, Inc. or will provide
 assistance to any competitor of Gaussian, Inc.  The licensee
 of this program is prohibited from giving any competitor of
 Gaussian, Inc. access to this program.  By using this program,
 the user acknowledges that Gaussian, Inc. is engaged in the
 business of creating and licensing software in the field of
 computational chemistry and represents and warrants to the
 licensee that it is not a competitor of Gaussian, Inc. and that
 it will not use this program in any manner prohibited above.
 ---------------------------------------------------------------
  

 Cite this work as:
 Gaussian 16, Revision C.01,
 M. J. Frisch, G. W. Trucks, H. B. Schlegel, G. E. Scuseria, 
 M. A. Robb, J. R. Cheeseman, G. Scalmani, V. Barone, 
 G. A. Petersson, H. Nakatsuji, X. Li, M. Caricato, A. V. Marenich, 
 J. Bloino, B. G. Janesko, R. Gomperts, B. Mennucci, H. P. Hratchian, 
 J. V. Ortiz, A. F. Izmaylov, J. L. Sonnenberg, D. Williams-Young, 
 F. Ding, F. Lipparini, F. Egidi, J. Goings, B. Peng, A. Petrone, 
 T. Henderson, D. Ranasinghe, V. G. Zakrzewski, J. Gao, N. Rega, 
 G. Zheng, W. Liang, M. Hada, M. Ehara, K. Toyota, R. Fukuda, 
 J. Hasegawa, M. Ishida, T. Nakajima, Y. Honda, O. Kitao, H. Nakai, 
 T. Vreven, K. Throssell, J. A. Montgomery, Jr., J. E. Peralta, 
 F. Ogliaro, M. J. Bearpark, J. J. Heyd, E. N. Brothers, K. N. Kudin, 
 V. N. Staroverov, T. A. Keith, R. Kobayashi, J. Normand, 
 K. Raghavachari, A. P. Rendell, J. C. Burant, S. S. Iyengar, 
 J. Tomasi, M. Cossi, J. M. Millam, M. Klene, C. Adamo, R. Cammi, 
 J. W. Ochterski, R. L. Martin, K. Morokuma, O. Farkas, 
 J. B. Foresman, and D. J. Fox, Gaussian, Inc., Wallingford CT, 2019.
 
 ******************************************
 Gaussian 16:  ES64L-G16RevC.01  3-Jul-2019
                27-Apr-2023 
 ******************************************
 %nprocshared=20
 Will use up to   20 processors via shared memory.
 %mem=10000MW
 %chk=CYH-219-A_eq00005.chk
 ------------------------------------
 # opt freq M062x/aug-cc-pvtz pop=nbo
 ------------------------------------
 1/18=20,19=15,26=3,38=1/1,3;
 2/9=110,12=2,17=6,18=5,40=1/2;
 3/5=16,6=1,7=10,11=2,25=1,30=1,71=1,74=-55/1,2,3;
 4//1;
 5/5=2,38=5/2;
 6/7=2,8=2,9=2,10=2,28=1,40=1/1,7;
 7//1,2,3,16;
 1/18=20,19=15,26=3/3(2);
 2/9=110/2;
 99//99;
 2/9=110/2;
 3/5=16,6=1,7=10,11=2,25=1,30=1,71=1,74=-55/1,2,3;
 4/5=5,16=3,69=1/1;
 5/5=2,38=5/2;
 7//1,2,3,16;
 1/18=20,19=15,26=3/3(-5);
 2/9=110/2;
 6/7=2,8=2,9=2,10=2,19=2,28=1,40=1/1,7;
 99/9=1/99;
 -----------------
 CYH-219-A_eq00005
 -----------------
 Symbolic Z-matrix:
 Charge =  0 Multiplicity = 1
 C                    -1.54104   0.17264   0.17824 
 C                    -1.21744  -1.19272   0.09248 
 C                     0.08522  -1.6181   -0.03262 
 C                     1.0686   -0.63802  -0.07025 
 C                     0.76357   0.73901   0.01489 
 C                    -0.55791   1.14991   0.14051 
 C                    -2.96888   0.52965   0.31009 
 O                     2.40091  -0.81117  -0.18669 
 C                     2.95307   0.42605  -0.1775 
 C                     2.0274    1.40474  -0.05904 
 H                    -2.02853  -1.90329   0.12802 
 H                     0.3408   -2.66311  -0.09918 
 H                    -0.81562   2.19449   0.20682 
 O                    -3.87707  -0.26355   0.34886 
 O                    -3.18558   1.85424   0.38621 
 H                    -4.13718   2.02073   0.47071 
 H                     4.02176   0.46917  -0.26275 
 H                     2.20273   2.46004  -0.02701 
 

 GradGradGradGradGradGradGradGradGradGradGradGradGradGradGradGradGradGrad
 Berny optimization.
 Initialization pass.
                           ----------------------------
                           !    Initial Parameters    !
                           ! (Angstroms and Degrees)  !
 --------------------------                            --------------------------
 ! Name  Definition              Value          Derivative Info.                !
 --------------------------------------------------------------------------------
 ! R1    R(1,2)                  1.4058         estimate D2E/DX2                !
 ! R2    R(1,6)                  1.3867         estimate D2E/DX2                !
 ! R3    R(1,7)                  1.4777         estimate D2E/DX2                !
 ! R4    R(2,3)                  1.376          estimate D2E/DX2                !
 ! R5    R(2,11)                 1.0789         estimate D2E/DX2                !
 ! R6    R(3,4)                  1.3889         estimate D2E/DX2                !
 ! R7    R(3,12)                 1.0779         estimate D2E/DX2                !
 ! R8    R(4,5)                  1.413          estimate D2E/DX2                !
 ! R9    R(4,8)                  1.3485         estimate D2E/DX2                !
 ! R10   R(5,6)                  1.3896         estimate D2E/DX2                !
 ! R11   R(5,10)                 1.4304         estimate D2E/DX2                !
 ! R12   R(6,13)                 1.0779         estimate D2E/DX2                !
 ! R13   R(7,14)                 1.2064         estimate D2E/DX2                !
 ! R14   R(7,15)                 1.3444         estimate D2E/DX2                !
 ! R15   R(8,9)                  1.3549         estimate D2E/DX2                !
 ! R16   R(9,10)                 1.3523         estimate D2E/DX2                !
 ! R17   R(9,17)                 1.0729         estimate D2E/DX2                !
 ! R18   R(10,18)                1.0702         estimate D2E/DX2                !
 ! R19   R(15,16)                0.9697         estimate D2E/DX2                !
 ! A1    A(2,1,6)              121.3051         estimate D2E/DX2                !
 ! A2    A(2,1,7)              117.5497         estimate D2E/DX2                !
 ! A3    A(6,1,7)              121.1452         estimate D2E/DX2                !
 ! A4    A(1,2,3)              121.5804         estimate D2E/DX2                !
 ! A5    A(1,2,11)             117.6839         estimate D2E/DX2                !
 ! A6    A(3,2,11)             120.7356         estimate D2E/DX2                !
 ! A7    A(2,3,4)              117.0391         estimate D2E/DX2                !
 ! A8    A(2,3,12)             121.9909         estimate D2E/DX2                !
 ! A9    A(4,3,12)             120.9699         estimate D2E/DX2                !
 ! A10   A(3,4,5)              122.2234         estimate D2E/DX2                !
 ! A11   A(3,4,8)              127.6796         estimate D2E/DX2                !
 ! A12   A(5,4,8)              110.097          estimate D2E/DX2                !
 ! A13   A(4,5,6)              119.9288         estimate D2E/DX2                !
 ! A14   A(4,5,10)             105.0542         estimate D2E/DX2                !
 ! A15   A(6,5,10)             135.017          estimate D2E/DX2                !
 ! A16   A(1,6,5)              117.9231         estimate D2E/DX2                !
 ! A17   A(1,6,13)             120.7799         estimate D2E/DX2                !
 ! A18   A(5,6,13)             121.297          estimate D2E/DX2                !
 ! A19   A(1,7,14)             124.8493         estimate D2E/DX2                !
 ! A20   A(1,7,15)             113.5062         estimate D2E/DX2                !
 ! A21   A(14,7,15)            121.6444         estimate D2E/DX2                !
 ! A22   A(4,8,9)              106.5471         estimate D2E/DX2                !
 ! A23   A(8,9,10)             112.4884         estimate D2E/DX2                !
 ! A24   A(8,9,17)             116.2374         estimate D2E/DX2                !
 ! A25   A(10,9,17)            131.2742         estimate D2E/DX2                !
 ! A26   A(5,10,9)             105.8133         estimate D2E/DX2                !
 ! A27   A(5,10,18)            127.0231         estimate D2E/DX2                !
 ! A28   A(9,10,18)            127.1637         estimate D2E/DX2                !
 ! A29   A(7,15,16)            109.4065         estimate D2E/DX2                !
 ! D1    D(6,1,2,3)             -0.0161         estimate D2E/DX2                !
 ! D2    D(6,1,2,11)           179.9846         estimate D2E/DX2                !
 ! D3    D(7,1,2,3)            179.977          estimate D2E/DX2                !
 ! D4    D(7,1,2,11)            -0.0223         estimate D2E/DX2                !
 ! D5    D(2,1,6,5)             -0.0027         estimate D2E/DX2                !
 ! D6    D(2,1,6,13)           179.9919         estimate D2E/DX2                !
 ! D7    D(7,1,6,5)           -179.9956         estimate D2E/DX2                !
 ! D8    D(7,1,6,13)            -0.0009         estimate D2E/DX2                !
 ! D9    D(2,1,7,14)            -0.0415         estimate D2E/DX2                !
 ! D10   D(2,1,7,15)           179.9611         estimate D2E/DX2                !
 ! D11   D(6,1,7,14)           179.9516         estimate D2E/DX2                !
 ! D12   D(6,1,7,15)            -0.0458         estimate D2E/DX2                !
 ! D13   D(1,2,3,4)              0.0151         estimate D2E/DX2                !
 ! D14   D(1,2,3,12)          -179.983          estimate D2E/DX2                !
 ! D15   D(11,2,3,4)          -179.9856         estimate D2E/DX2                !
 ! D16   D(11,2,3,12)            0.0162         estimate D2E/DX2                !
 ! D17   D(2,3,4,5)              0.0039         estimate D2E/DX2                !
 ! D18   D(2,3,4,8)            179.9957         estimate D2E/DX2                !
 ! D19   D(12,3,4,5)          -179.998          estimate D2E/DX2                !
 ! D20   D(12,3,4,8)            -0.0061         estimate D2E/DX2                !
 ! D21   D(3,4,5,6)             -0.0224         estimate D2E/DX2                !
 ! D22   D(3,4,5,10)           179.9841         estimate D2E/DX2                !
 ! D23   D(8,4,5,6)            179.9844         estimate D2E/DX2                !
 ! D24   D(8,4,5,10)            -0.009          estimate D2E/DX2                !
 ! D25   D(3,4,8,9)           -179.9839         estimate D2E/DX2                !
 ! D26   D(5,4,8,9)              0.0088         estimate D2E/DX2                !
 ! D27   D(4,5,6,1)              0.0211         estimate D2E/DX2                !
 ! D28   D(4,5,6,13)          -179.9735         estimate D2E/DX2                !
 ! D29   D(10,5,6,1)          -179.9878         estimate D2E/DX2                !
 ! D30   D(10,5,6,13)            0.0176         estimate D2E/DX2                !
 ! D31   D(4,5,10,9)             0.0056         estimate D2E/DX2                !
 ! D32   D(4,5,10,18)         -179.9906         estimate D2E/DX2                !
 ! D33   D(6,5,10,9)          -179.9863         estimate D2E/DX2                !
 ! D34   D(6,5,10,18)            0.0174         estimate D2E/DX2                !
 ! D35   D(1,7,15,16)          179.9862         estimate D2E/DX2                !
 ! D36   D(14,7,15,16)          -0.0113         estimate D2E/DX2                !
 ! D37   D(4,8,9,10)            -0.0051         estimate D2E/DX2                !
 ! D38   D(4,8,9,17)           179.9904         estimate D2E/DX2                !
 ! D39   D(8,9,10,5)            -0.0005         estimate D2E/DX2                !
 ! D40   D(8,9,10,18)          179.9957         estimate D2E/DX2                !
 ! D41   D(17,9,10,5)         -179.9952         estimate D2E/DX2                !
 ! D42   D(17,9,10,18)           0.001          estimate D2E/DX2                !
 --------------------------------------------------------------------------------
 Trust Radius=3.00D-01 FncErr=1.00D-07 GrdErr=1.00D-06 EigMax=2.50D+02 EigMin=1.00D-04
 Number of steps in this run=    100 maximum allowed number of steps=    108.
 GradGradGradGradGradGradGradGradGradGradGradGradGradGradGradGradGradGrad

                          Input orientation:                          
 ---------------------------------------------------------------------
 Center     Atomic      Atomic             Coordinates (Angstroms)
 Number     Number       Type             X           Y           Z
 ---------------------------------------------------------------------
      1          6           0       -1.541043    0.172639    0.178240
      2          6           0       -1.217438   -1.192721    0.092483
      3          6           0        0.085220   -1.618096   -0.032620
      4          6           0        1.068604   -0.638019   -0.070253
      5          6           0        0.763574    0.739009    0.014892
      6          6           0       -0.557906    1.149907    0.140512
      7          6           0       -2.968884    0.529645    0.310095
      8          8           0        2.400905   -0.811167   -0.186689
      9          6           0        2.953074    0.426045   -0.177501
     10          6           0        2.027395    1.404742   -0.059043
     11          1           0       -2.028526   -1.903289    0.128025
     12          1           0        0.340797   -2.663112   -0.099175
     13          1           0       -0.815624    2.194491    0.206818
     14          8           0       -3.877071   -0.263546    0.348859
     15          8           0       -3.185578    1.854236    0.386209
     16          1           0       -4.137182    2.020728    0.470709
     17          1           0        4.021756    0.469173   -0.262748
     18          1           0        2.202726    2.460035   -0.027014
 ---------------------------------------------------------------------
                    Distance matrix (angstroms):
                    1          2          3          4          5
     1  C    0.000000
     2  C    1.405803   0.000000
     3  C    2.428152   1.376050   0.000000
     4  C    2.743933   2.358000   1.388888   0.000000
     5  C    2.378806   2.768034   2.453236   1.412976   0.000000
     6  C    1.386736   2.434173   2.847004   2.426239   1.389578
     7  C    1.477690   2.466062   3.749373   4.220120   3.749963
     8  O    4.079216   3.649100   2.457086   1.348542   2.263744
     9  C    4.515291   4.481793   3.524782   2.166786   2.220106
    10  C    3.782609   4.159173   3.593090   2.256608   1.430353
    11  H    2.132988   1.078903   2.138939   3.351482   3.845824
    12  H    3.414639   2.151018   1.077871   2.152101   3.430187
    13  H    2.148240   3.412877   3.924878   3.413238   2.156184
    14  O    2.382519   2.828912   4.204769   4.977508   4.759437
    15  O    2.361253   3.639203   4.788594   4.951541   4.120365
    16  H    3.200143   4.358235   5.596701   5.870416   5.086058
    17  H    5.588125   5.507925   4.461611   3.159753   3.281104
    18  H    4.392052   5.005440   4.595108   3.299400   2.243846
                    6          7          8          9         10
     6  C    0.000000
     7  C    2.495255   0.000000
     8  O    3.564749   5.556906   0.000000
     9  C    3.598901   5.942900   1.354868   0.000000
    10  C    2.605483   5.085751   2.250790   1.352317   0.000000
    11  H    3.388936   2.614688   4.572924   5.507765   5.237228
    12  H    3.924822   4.616837   2.771535   4.046358   4.403823
    13  H    1.077947   2.723766   4.419829   4.180692   2.962625
    14  O    3.613602   1.206424   6.324531   6.885018   6.149170
    15  O    2.731503   1.344355   6.216220   6.327760   5.251227
    16  H    3.698456   1.901065   7.155305   7.296226   6.217885
    17  H    4.647507   7.014332   2.066933   1.072944   2.212298
    18  H    3.060325   5.530425   3.281087   2.173196   1.070239
                   11         12         13         14         15
    11  H    0.000000
    12  H    2.498527   0.000000
    13  H    4.274241   5.002723   0.000000
    14  O    2.480856   4.873301   3.928687   0.000000
    15  O    3.940105   5.751291   2.400966   2.228129   0.000000
    16  H    4.467860   6.505030   3.336552   2.302263   0.969747
    17  H    6.510544   4.836055   5.157273   7.956282   7.367850
    18  H    6.079978   5.451479   3.039018   6.672564   5.437975
                   16         17         18
    16  H    0.000000
    17  H    8.337479   0.000000
    18  H    6.374571   2.707023   0.000000
 Stoichiometry    C9H6O3
 Framework group  C1[X(C9H6O3)]
 Deg. of freedom    48
 Full point group                 C1      NOp   1
 Largest Abelian subgroup         C1      NOp   1
 Largest concise Abelian subgroup C1      NOp   1
                         Standard orientation:                         
 ---------------------------------------------------------------------
 Center     Atomic      Atomic             Coordinates (Angstroms)
 Number     Number       Type             X           Y           Z
 ---------------------------------------------------------------------
      1          6           0        1.134363    0.109642    0.000141
      2          6           0        0.677005    1.438966    0.000484
      3          6           0       -0.665934    1.739013    0.000235
      4          6           0       -1.551873    0.669377   -0.000045
      5          6           0       -1.111888   -0.673349    0.000004
      6          6           0        0.248395   -0.957175   -0.000131
      7          6           0        2.595579   -0.110400   -0.000078
      8          8           0       -2.899631    0.715358   -0.000238
      9          6           0       -3.329563   -0.569487   -0.000115
     10          6           0       -2.308794   -1.456500    0.000041
     11          1           0        1.417349    2.223774    0.000940
     12          1           0       -1.023897    2.755708    0.000225
     13          1           0        0.608421   -1.973222   -0.000525
     14          8           0        3.424698    0.765969   -0.000702
     15          8           0        2.942221   -1.409295    0.000435
     16          1           0        3.909026   -1.484773    0.000038
     17          1           0       -4.392741   -0.713919   -0.000081
     18          1           0       -2.380205   -2.524353    0.000222
 ---------------------------------------------------------------------
 Rotational constants (GHZ):           2.6936653           0.5923866           0.4855953
 Standard basis: Aug-CC-pVTZ (5D, 7F)
 There are   810 symmetry adapted cartesian basis functions of A   symmetry.
 There are   690 symmetry adapted basis functions of A   symmetry.
   690 basis functions,  1026 primitive gaussians,   810 cartesian basis functions
    42 alpha electrons       42 beta electrons
       nuclear repulsion energy       644.3254533968 Hartrees.
 NAtoms=   18 NActive=   18 NUniq=   18 SFac= 1.00D+00 NAtFMM=   60 NAOKFM=F Big=F
 Integral buffers will be    131072 words long.
 Raffenetti 2 integral format.
 Two-electron integral symmetry is turned on.
 One-electron integrals computed using PRISM.
 NBasis=   690 RedAO= T EigKep=  1.31D-06  NBF=   690
 NBsUse=   688 1.00D-06 EigRej=  6.42D-07 NBFU=   688
 ExpMin= 2.53D-02 ExpMax= 1.53D+04 ExpMxC= 5.22D+02 IAcc=3 IRadAn=         5 AccDes= 0.00D+00
 Harris functional with IExCor= 1009 and IRadAn=       5 diagonalized for initial guess.
 HarFok:  IExCor= 1009 AccDes= 0.00D+00 IRadAn=         5 IDoV= 1 UseB2=F ITyADJ=14
 ICtDFT=  3500011 ScaDFX=  1.000000  1.000000  1.000000  1.000000
 FoFCou: FMM=F IPFlag=           0 FMFlag=      100000 FMFlg1=           0
         NFxFlg=           0 DoJE=T BraDBF=F KetDBF=T FulRan=T
         wScrn=  0.000000 ICntrl=       500 IOpCl=  0 I1Cent=   200000004 NGrid=           0
         NMat0=    1 NMatS0=      1 NMatT0=    0 NMatD0=    1 NMtDS0=    0 NMtDT0=    0
 Petite list used in FoFCou.
 Requested convergence on RMS density matrix=1.00D-08 within 128 cycles.
 Requested convergence on MAX density matrix=1.00D-06.
 Requested convergence on             energy=1.00D-06.
 No special actions if energy rises.
 SCF Done:  E(RM062X) =  -572.251992473     A.U. after   13 cycles
            NFock= 13  Conv=0.99D-08     -V/T= 2.0050

 **********************************************************************

            Population analysis using the SCF Density.

 **********************************************************************

 Orbital symmetries:
       Occupied  (A) (A) (A) (A) (A) (A) (A) (A) (A) (A) (A) (A)
                 (A) (A) (A) (A) (A) (A) (A) (A) (A) (A) (A) (A)
                 (A) (A) (A) (A) (A) (A) (A) (A) (A) (A) (A) (A)
                 (A) (A) (A) (A) (A) (A)
       Virtual   (A) (A) (A) (A) (A) (A) (A) (A) (A) (A) (A) (A)
                 (A) (A) (A) (A) (A) (A) (A) (A) (A) (A) (A) (A)
                 (A) (A) (A) (A) (A) (A) (A) (A) (A) (A) (A) (A)
                 (A) (A) (A) (A) (A) (A) (A) (A) (A) (A) (A) (A)
                 (A) (A) (A) (A) (A) (A) (A) (A) (A) (A) (A) (A)
                 (A) (A) (A) (A) (A) (A) (A) (A) (A) (A) (A) (A)
                 (A) (A) (A) (A) (A) (A) (A) (A) (A) (A) (A) (A)
                 (A) (A) (A) (A) (A) (A) (A) (A) (A) (A) (A) (A)
                 (A) (A) (A) (A) (A) (A) (A) (A) (A) (A) (A) (A)
                 (A) (A) (A) (A) (A) (A) (A) (A) (A) (A) (A) (A)
                 (A) (A) (A) (A) (A) (A) (A) (A) (A) (A) (A) (A)
                 (A) (A) (A) (A) (A) (A) (A) (A) (A) (A) (A) (A)
                 (A) (A) (A) (A) (A) (A) (A) (A) (A) (A) (A) (A)
                 (A) (A) (A) (A) (A) (A) (A) (A) (A) (A) (A) (A)
                 (A) (A) (A) (A) (A) (A) (A) (A) (A) (A) (A) (A)
                 (A) (A) (A) (A) (A) (A) (A) (A) (A) (A) (A) (A)
                 (A) (A) (A) (A) (A) (A) (A) (A) (A) (A) (A) (A)
                 (A) (A) (A) (A) (A) (A) (A) (A) (A) (A) (A) (A)
                 (A) (A) (A) (A) (A) (A) (A) (A) (A) (A) (A) (A)
                 (A) (A) (A) (A) (A) (A) (A) (A) (A) (A) (A) (A)
                 (A) (A) (A) (A) (A) (A) (A) (A) (A) (A) (A) (A)
                 (A) (A) (A) (A) (A) (A) (A) (A) (A) (A) (A) (A)
                 (A) (A) (A) (A) (A) (A) (A) (A) (A) (A) (A) (A)
                 (A) (A) (A) (A) (A) (A) (A) (A) (A) (A) (A) (A)
                 (A) (A) (A) (A) (A) (A) (A) (A) (A) (A) (A) (A)
                 (A) (A) (A) (A) (A) (A) (A) (A) (A) (A) (A) (A)
                 (A) (A) (A) (A) (A) (A) (A) (A) (A) (A) (A) (A)
                 (A) (A) (A) (A) (A) (A) (A) (A) (A) (A) (A) (A)
                 (A) (A) (A) (A) (A) (A) (A) (A) (A) (A) (A) (A)
                 (A) (A) (A) (A) (A) (A) (A) (A) (A) (A) (A) (A)
                 (A) (A) (A) (A) (A) (A) (A) (A) (A) (A) (A) (A)
                 (A) (A) (A) (A) (A) (A) (A) (A) (A) (A) (A) (A)
                 (A) (A) (A) (A) (A) (A) (A) (A) (A) (A) (A) (A)
                 (A) (A) (A) (A) (A) (A) (A) (A) (A) (A) (A) (A)
                 (A) (A) (A) (A) (A) (A) (A) (A) (A) (A) (A) (A)
                 (A) (A) (A) (A) (A) (A) (A) (A) (A) (A) (A) (A)
                 (A) (A) (A) (A) (A) (A) (A) (A) (A) (A) (A) (A)
                 (A) (A) (A) (A) (A) (A) (A) (A) (A) (A) (A) (A)
                 (A) (A) (A) (A) (A) (A) (A) (A) (A) (A) (A) (A)
                 (A) (A) (A) (A) (A) (A) (A) (A) (A) (A) (A) (A)
                 (A) (A) (A) (A) (A) (A) (A) (A) (A) (A) (A) (A)
                 (A) (A) (A) (A) (A) (A) (A) (A) (A) (A) (A) (A)
                 (A) (A) (A) (A) (A) (A) (A) (A) (A) (A) (A) (A)
                 (A) (A) (A) (A) (A) (A) (A) (A) (A) (A) (A) (A)
                 (A) (A) (A) (A) (A) (A) (A) (A) (A) (A) (A) (A)
                 (A) (A) (A) (A) (A) (A) (A) (A) (A) (A) (A) (A)
                 (A) (A) (A) (A) (A) (A) (A) (A) (A) (A) (A) (A)
                 (A) (A) (A) (A) (A) (A) (A) (A) (A) (A) (A) (A)
                 (A) (A) (A) (A) (A) (A) (A) (A) (A) (A) (A) (A)
                 (A) (A) (A) (A) (A) (A) (A) (A) (A) (A) (A) (A)
                 (A) (A) (A) (A) (A) (A) (A) (A) (A) (A) (A) (A)
                 (A) (A) (A) (A) (A) (A) (A) (A) (A) (A) (A) (A)
                 (A) (A) (A) (A) (A) (A) (A) (A) (A) (A) (A) (A)
                 (A) (A) (A) (A) (A) (A) (A) (A) (A) (A)
 The electronic state is 1-A.
 Alpha  occ. eigenvalues --  -19.71091 -19.67569 -19.61652 -10.68123 -10.61794
 Alpha  occ. eigenvalues --  -10.61523 -10.56562 -10.56430 -10.56353 -10.56103
 Alpha  occ. eigenvalues --  -10.55865 -10.55538  -1.26395  -1.24192  -1.14315
 Alpha  occ. eigenvalues --   -0.98572  -0.92045  -0.88276  -0.84500  -0.77240
 Alpha  occ. eigenvalues --   -0.72864  -0.69287  -0.67672  -0.62127  -0.60738
 Alpha  occ. eigenvalues --   -0.58252  -0.57714  -0.56640  -0.54331  -0.53041
 Alpha  occ. eigenvalues --   -0.50704  -0.49800  -0.49336  -0.47474  -0.45893
 Alpha  occ. eigenvalues --   -0.44247  -0.41350  -0.40319  -0.37585  -0.36280
 Alpha  occ. eigenvalues --   -0.31277  -0.29053
 Alpha virt. eigenvalues --   -0.02072  -0.00774  -0.00642  -0.00107   0.00497
 Alpha virt. eigenvalues --    0.01329   0.02442   0.02786   0.03159   0.04197
 Alpha virt. eigenvalues --    0.04620   0.04707   0.05306   0.05914   0.05914
 Alpha virt. eigenvalues --    0.07087   0.07524   0.08101   0.08375   0.08612
 Alpha virt. eigenvalues --    0.08630   0.08756   0.09080   0.09232   0.10174
 Alpha virt. eigenvalues --    0.10368   0.10706   0.10736   0.11997   0.12107
 Alpha virt. eigenvalues --    0.12557   0.13061   0.13285   0.13356   0.14417
 Alpha virt. eigenvalues --    0.14925   0.15096   0.16187   0.16723   0.16858
 Alpha virt. eigenvalues --    0.17925   0.18117   0.18521   0.18972   0.19399
 Alpha virt. eigenvalues --    0.19880   0.20091   0.20250   0.20932   0.21037
 Alpha virt. eigenvalues --    0.21384   0.21974   0.22287   0.22984   0.23169
 Alpha virt. eigenvalues --    0.23310   0.24149   0.24359   0.24784   0.25248
 Alpha virt. eigenvalues --    0.26295   0.26415   0.26558   0.26760   0.27619
 Alpha virt. eigenvalues --    0.28344   0.28501   0.29418   0.30016   0.30028
 Alpha virt. eigenvalues --    0.30198   0.31344   0.31664   0.32563   0.32809
 Alpha virt. eigenvalues --    0.33365   0.33852   0.34033   0.34183   0.34753
 Alpha virt. eigenvalues --    0.35011   0.35701   0.36083   0.36109   0.37275
 Alpha virt. eigenvalues --    0.37593   0.37663   0.38038   0.38443   0.38655
 Alpha virt. eigenvalues --    0.38816   0.38905   0.39603   0.39924   0.40455
 Alpha virt. eigenvalues --    0.40933   0.41257   0.41487   0.42364   0.42449
 Alpha virt. eigenvalues --    0.43479   0.43883   0.44458   0.45361   0.45454
 Alpha virt. eigenvalues --    0.45937   0.46771   0.46876   0.47029   0.47411
 Alpha virt. eigenvalues --    0.48129   0.48270   0.49821   0.50993   0.51600
 Alpha virt. eigenvalues --    0.52684   0.53237   0.53368   0.53452   0.53951
 Alpha virt. eigenvalues --    0.54732   0.54879   0.56434   0.56746   0.57086
 Alpha virt. eigenvalues --    0.58464   0.59109   0.60013   0.60368   0.60395
 Alpha virt. eigenvalues --    0.61733   0.62344   0.62380   0.63073   0.65288
 Alpha virt. eigenvalues --    0.65720   0.66190   0.66785   0.67439   0.67950
 Alpha virt. eigenvalues --    0.68028   0.68290   0.68905   0.69853   0.70194
 Alpha virt. eigenvalues --    0.71115   0.71241   0.72229   0.72620   0.73088
 Alpha virt. eigenvalues --    0.74370   0.74507   0.74921   0.75675   0.75743
 Alpha virt. eigenvalues --    0.76941   0.77514   0.77582   0.78498   0.78695
 Alpha virt. eigenvalues --    0.79284   0.79620   0.80097   0.80744   0.81549
 Alpha virt. eigenvalues --    0.81570   0.81808   0.82267   0.82280   0.83457
 Alpha virt. eigenvalues --    0.83637   0.83921   0.84434   0.85714   0.85764
 Alpha virt. eigenvalues --    0.86365   0.86957   0.88433   0.88969   0.89286
 Alpha virt. eigenvalues --    0.89536   0.90313   0.90552   0.90804   0.91667
 Alpha virt. eigenvalues --    0.91671   0.92081   0.93300   0.94315   0.94768
 Alpha virt. eigenvalues --    0.94896   0.96038   0.96594   0.96691   0.97495
 Alpha virt. eigenvalues --    0.97536   0.98016   0.99068   1.00239   1.00642
 Alpha virt. eigenvalues --    1.00882   1.01587   1.02003   1.02227   1.02300
 Alpha virt. eigenvalues --    1.03166   1.03575   1.04568   1.04653   1.05331
 Alpha virt. eigenvalues --    1.05904   1.06112   1.06683   1.07555   1.07949
 Alpha virt. eigenvalues --    1.08813   1.09277   1.10693   1.11746   1.11779
 Alpha virt. eigenvalues --    1.12193   1.12661   1.14003   1.14164   1.14844
 Alpha virt. eigenvalues --    1.17158   1.18121   1.18499   1.18812   1.19673
 Alpha virt. eigenvalues --    1.20142   1.20676   1.21239   1.22147   1.22304
 Alpha virt. eigenvalues --    1.22669   1.24068   1.24287   1.24837   1.27486
 Alpha virt. eigenvalues --    1.27827   1.29705   1.30322   1.30981   1.31265
 Alpha virt. eigenvalues --    1.32879   1.33951   1.34816   1.35043   1.35539
 Alpha virt. eigenvalues --    1.36792   1.37784   1.38495   1.38865   1.39585
 Alpha virt. eigenvalues --    1.40182   1.41377   1.42280   1.43024   1.44796
 Alpha virt. eigenvalues --    1.45291   1.46642   1.47652   1.47720   1.48040
 Alpha virt. eigenvalues --    1.49533   1.51146   1.51566   1.52059   1.53234
 Alpha virt. eigenvalues --    1.53732   1.53896   1.54424   1.55139   1.57523
 Alpha virt. eigenvalues --    1.58429   1.59129   1.59644   1.61201   1.62289
 Alpha virt. eigenvalues --    1.62874   1.63947   1.64944   1.66088   1.66291
 Alpha virt. eigenvalues --    1.66826   1.67492   1.68384   1.69300   1.69532
 Alpha virt. eigenvalues --    1.71091   1.72431   1.73361   1.74108   1.74531
 Alpha virt. eigenvalues --    1.75162   1.75360   1.77146   1.78058   1.78652
 Alpha virt. eigenvalues --    1.78957   1.79539   1.80877   1.82456   1.83204
 Alpha virt. eigenvalues --    1.83689   1.85495   1.86720   1.87309   1.88116
 Alpha virt. eigenvalues --    1.88550   1.89480   1.90772   1.91364   1.91996
 Alpha virt. eigenvalues --    1.93047   1.93246   1.95022   1.97400   1.97984
 Alpha virt. eigenvalues --    1.98933   1.98996   2.01068   2.01859   2.02163
 Alpha virt. eigenvalues --    2.03299   2.04078   2.05713   2.06604   2.07037
 Alpha virt. eigenvalues --    2.08714   2.11003   2.11691   2.11855   2.13863
 Alpha virt. eigenvalues --    2.15330   2.15371   2.16163   2.17188   2.17404
 Alpha virt. eigenvalues --    2.21269   2.22303   2.22787   2.23553   2.24297
 Alpha virt. eigenvalues --    2.27292   2.27853   2.28153   2.30374   2.32769
 Alpha virt. eigenvalues --    2.33027   2.33485   2.34262   2.36157   2.36840
 Alpha virt. eigenvalues --    2.38909   2.39102   2.39258   2.40507   2.41507
 Alpha virt. eigenvalues --    2.42354   2.43544   2.44710   2.46898   2.49258
 Alpha virt. eigenvalues --    2.49460   2.50203   2.51372   2.53722   2.57318
 Alpha virt. eigenvalues --    2.57605   2.60110   2.62721   2.63624   2.64457
 Alpha virt. eigenvalues --    2.66512   2.67224   2.68466   2.69700   2.70992
 Alpha virt. eigenvalues --    2.73411   2.73896   2.77358   2.78016   2.78343
 Alpha virt. eigenvalues --    2.81782   2.83379   2.83838   2.84482   2.86822
 Alpha virt. eigenvalues --    2.90339   2.92010   2.94714   2.94864   2.95632
 Alpha virt. eigenvalues --    2.95839   2.97558   2.99490   2.99730   3.00374
 Alpha virt. eigenvalues --    3.00840   3.03520   3.05445   3.06585   3.07340
 Alpha virt. eigenvalues --    3.07475   3.08296   3.09879   3.10345   3.12261
 Alpha virt. eigenvalues --    3.12686   3.13274   3.15882   3.16159   3.18392
 Alpha virt. eigenvalues --    3.19341   3.20826   3.21453   3.22656   3.23611
 Alpha virt. eigenvalues --    3.23856   3.25321   3.26401   3.26671   3.26978
 Alpha virt. eigenvalues --    3.28899   3.29051   3.30561   3.31691   3.33385
 Alpha virt. eigenvalues --    3.33605   3.33812   3.35965   3.37246   3.38232
 Alpha virt. eigenvalues --    3.39162   3.40397   3.40430   3.43890   3.44330
 Alpha virt. eigenvalues --    3.46201   3.46648   3.47382   3.48331   3.49596
 Alpha virt. eigenvalues --    3.52386   3.52427   3.53023   3.54397   3.55970
 Alpha virt. eigenvalues --    3.56672   3.57476   3.58457   3.59997   3.60522
 Alpha virt. eigenvalues --    3.60944   3.62842   3.63253   3.64642   3.64766
 Alpha virt. eigenvalues --    3.66753   3.67137   3.67815   3.70008   3.70101
 Alpha virt. eigenvalues --    3.72103   3.74060   3.75582   3.75765   3.76540
 Alpha virt. eigenvalues --    3.77545   3.78711   3.81309   3.82766   3.83621
 Alpha virt. eigenvalues --    3.84142   3.84766   3.84892   3.87328   3.87866
 Alpha virt. eigenvalues --    3.89281   3.89392   3.90140   3.92175   3.93174
 Alpha virt. eigenvalues --    3.93882   3.94780   3.95361   3.96753   3.97435
 Alpha virt. eigenvalues --    3.97788   3.98747   4.01785   4.02134   4.02477
 Alpha virt. eigenvalues --    4.03082   4.05057   4.06295   4.07342   4.09632
 Alpha virt. eigenvalues --    4.11242   4.11685   4.12475   4.13527   4.13605
 Alpha virt. eigenvalues --    4.14967   4.16886   4.17756   4.20262   4.20877
 Alpha virt. eigenvalues --    4.23136   4.23913   4.24598   4.26145   4.26294
 Alpha virt. eigenvalues --    4.28766   4.31264   4.31272   4.34635   4.35593
 Alpha virt. eigenvalues --    4.35612   4.38059   4.39300   4.41180   4.44041
 Alpha virt. eigenvalues --    4.45365   4.47038   4.47962   4.49071   4.52817
 Alpha virt. eigenvalues --    4.53382   4.54232   4.54377   4.58495   4.60513
 Alpha virt. eigenvalues --    4.62639   4.62982   4.64628   4.65120   4.67507
 Alpha virt. eigenvalues --    4.68483   4.68714   4.71303   4.72363   4.73312
 Alpha virt. eigenvalues --    4.75114   4.76332   4.76559   4.80689   4.81365
 Alpha virt. eigenvalues --    4.83048   4.83606   4.86394   4.88778   4.89590
 Alpha virt. eigenvalues --    4.89935   4.94461   4.97892   4.98903   5.01861
 Alpha virt. eigenvalues --    5.03645   5.07055   5.09466   5.10656   5.16353
 Alpha virt. eigenvalues --    5.19003   5.22584   5.26404   5.27304   5.31481
 Alpha virt. eigenvalues --    5.34340   5.36836   5.37451   5.41482   5.44712
 Alpha virt. eigenvalues --    5.51400   5.59262   5.63453   5.67405   5.74167
 Alpha virt. eigenvalues --    5.77462   5.82706   5.85639   5.90449   5.94195
 Alpha virt. eigenvalues --    5.98839   6.01123   6.05704   6.10745   6.12777
 Alpha virt. eigenvalues --    6.21069   6.22654   6.23332   6.25423   6.33180
 Alpha virt. eigenvalues --    6.36399   6.37165   6.39888   6.40075   6.41270
 Alpha virt. eigenvalues --    6.49356   6.53083   6.54440   6.55115   6.56930
 Alpha virt. eigenvalues --    6.59080   6.60572   6.61374   6.69456   6.71380
 Alpha virt. eigenvalues --    6.75962   6.80528   6.82375   6.84686   6.87306
 Alpha virt. eigenvalues --    6.90076   6.92675   6.95247   7.06503   7.08369
 Alpha virt. eigenvalues --    7.11155   7.13206   7.15872   7.20156   7.27431
 Alpha virt. eigenvalues --    7.32523   7.36644   7.45100   7.48440   7.60241
 Alpha virt. eigenvalues --    7.80294   7.85052   7.93233   8.05819  15.07172
 Alpha virt. eigenvalues --   15.16241  15.69107  16.31374  16.69274  17.69261
 Alpha virt. eigenvalues --   17.95995  18.73415  18.87610  19.50375  19.74066
 Alpha virt. eigenvalues --   20.21275
          Condensed to atoms (all electrons):
               1          2          3          4          5          6
     1  C    6.774735  -0.411459   0.108881  -0.247406  -0.185203  -0.546867
     2  C   -0.411459   7.634235  -0.082643  -0.128080  -0.383164   0.078130
     3  C    0.108881  -0.082643   7.208900  -0.388035   0.149142  -0.427656
     4  C   -0.247406  -0.128080  -0.388035   7.230179  -0.436557  -0.066578
     5  C   -0.185203  -0.383164   0.149142  -0.436557   7.384729  -0.712344
     6  C   -0.546867   0.078130  -0.427656  -0.066578  -0.712344   9.052641
     7  C   -0.324132  -0.269914  -0.092886   0.116601   0.059857  -0.556200
     8  O    0.019195   0.006336  -0.103736  -0.394545  -0.225300   0.046900
     9  C    0.010094   0.001134  -0.100511  -0.183908   0.211665  -0.054169
    10  C    0.019821   0.039366   0.196944  -0.134120  -0.504539  -0.528371
    11  H   -0.463418   0.394406  -0.599925   0.157837  -0.073845   0.134105
    12  H    0.024191  -0.302361   0.580971  -0.412151   0.085844   0.011639
    13  H   -0.377241   0.041015   0.010550   0.064063  -0.606436   0.601644
    14  O   -0.097497   0.087984   0.004654  -0.008026  -0.027147   0.033103
    15  O    0.043860   0.020296  -0.000587  -0.003467  -0.020301  -0.126107
    16  H   -0.008827  -0.023278  -0.003353   0.003126   0.002458  -0.000789
    17  H    0.001611   0.002420  -0.000400   0.036424   0.035879  -0.003129
    18  H    0.001075   0.002543   0.004443  -0.045265  -0.028984  -0.180446
               7          8          9         10         11         12
     1  C   -0.324132   0.019195   0.010094   0.019821  -0.463418   0.024191
     2  C   -0.269914   0.006336   0.001134   0.039366   0.394406  -0.302361
     3  C   -0.092886  -0.103736  -0.100511   0.196944  -0.599925   0.580971
     4  C    0.116601  -0.394545  -0.183908  -0.134120   0.157837  -0.412151
     5  C    0.059857  -0.225300   0.211665  -0.504539  -0.073845   0.085844
     6  C   -0.556200   0.046900  -0.054169  -0.528371   0.134105   0.011639
     7  C    6.458609  -0.008839   0.004016  -0.032452   0.122221  -0.015642
     8  O   -0.008839   9.380870   0.150984  -0.020599  -0.000700  -0.017436
     9  C    0.004016   0.150984   6.679286  -0.116699   0.001750  -0.012299
    10  C   -0.032452  -0.020599  -0.116699   7.566171  -0.003377   0.001306
    11  H    0.122221  -0.000700   0.001750  -0.003377   1.516436  -0.203807
    12  H   -0.015642  -0.017436  -0.012299   0.001306  -0.203807   1.079646
    13  H    0.085119  -0.003573  -0.005318  -0.098343   0.001868  -0.001180
    14  O   -0.198730   0.000150  -0.000261   0.002282  -0.008979  -0.003709
    15  O    0.065912   0.000467  -0.000294   0.010192  -0.001568  -0.000726
    16  H    0.101250  -0.000184   0.000120  -0.001791   0.001300   0.000036
    17  H    0.000852  -0.127658   0.100672  -0.101335   0.000025   0.000290
    18  H   -0.002659   0.029080  -0.080634   0.545925   0.000407  -0.000688
              13         14         15         16         17         18
     1  C   -0.377241  -0.097497   0.043860  -0.008827   0.001611   0.001075
     2  C    0.041015   0.087984   0.020296  -0.023278   0.002420   0.002543
     3  C    0.010550   0.004654  -0.000587  -0.003353  -0.000400   0.004443
     4  C    0.064063  -0.008026  -0.003467   0.003126   0.036424  -0.045265
     5  C   -0.606436  -0.027147  -0.020301   0.002458   0.035879  -0.028984
     6  C    0.601644   0.033103  -0.126107  -0.000789  -0.003129  -0.180446
     7  C    0.085119  -0.198730   0.065912   0.101250   0.000852  -0.002659
     8  O   -0.003573   0.000150   0.000467  -0.000184  -0.127658   0.029080
     9  C   -0.005318  -0.000261  -0.000294   0.000120   0.100672  -0.080634
    10  C   -0.098343   0.002282   0.010192  -0.001791  -0.101335   0.545925
    11  H    0.001868  -0.008979  -0.001568   0.001300   0.000025   0.000407
    12  H   -0.001180  -0.003709  -0.000726   0.000036   0.000290  -0.000688
    13  H    1.501300  -0.004253  -0.058525   0.004618   0.001062  -0.060907
    14  O   -0.004253   9.344637  -0.082030  -0.110899  -0.000001  -0.000052
    15  O   -0.058525  -0.082030   8.551824   0.150012   0.000008   0.000536
    16  H    0.004618  -0.110899   0.150012   0.597075   0.000017  -0.000238
    17  H    0.001062  -0.000001   0.000008   0.000017   0.381722  -0.049617
    18  H   -0.060907  -0.000052   0.000536  -0.000238  -0.049617   0.666250
 Mulliken charges:
               1
     1  C    1.658587
     2  C   -0.706965
     3  C   -0.464754
     4  C    0.839906
     5  C    1.274246
     6  C   -0.755505
     7  C    0.487018
     8  O   -0.731412
     9  C   -0.605626
    10  C   -0.840383
    11  H    0.025262
    12  H    0.186076
    13  H   -0.095461
    14  O   -0.931225
    15  O   -0.549504
    16  H    0.289348
    17  H    0.721158
    18  H    0.199233
 Sum of Mulliken charges =   0.00000
 Mulliken charges with hydrogens summed into heavy atoms:
               1
     1  C    1.658587
     2  C   -0.681703
     3  C   -0.278678
     4  C    0.839906
     5  C    1.274246
     6  C   -0.850966
     7  C    0.487018
     8  O   -0.731412
     9  C    0.115533
    10  C   -0.641150
    14  O   -0.931225
    15  O   -0.260156
 Electronic spatial extent (au):  <R**2>=           2127.8808
 Charge=              0.0000 electrons
 Dipole moment (field-independent basis, Debye):
    X=             -2.1123    Y=             -2.0031    Z=              0.0007  Tot=              2.9111
 Quadrupole moment (field-independent basis, Debye-Ang):
   XX=            -63.9616   YY=            -62.3667   ZZ=            -70.9524
   XY=             -4.2812   XZ=              0.0023   YZ=              0.0045
 Traceless Quadrupole moment (field-independent basis, Debye-Ang):
   XX=              1.7986   YY=              3.3936   ZZ=             -5.1922
   XY=             -4.2812   XZ=              0.0023   YZ=              0.0045
 Octapole moment (field-independent basis, Debye-Ang**2):
  XXX=            -14.5809  YYY=              0.4544  ZZZ=             -0.0038  XYY=              0.8021
  XXY=            -50.3894  XXZ=              0.0122  XZZ=              8.8849  YZZ=              0.3910
  YYZ=              0.0016  XYZ=              0.0128
 Hexadecapole moment (field-independent basis, Debye-Ang**3):
 XXXX=          -1859.9136 YYYY=           -505.8213 ZZZZ=            -75.4390 XXXY=           -132.0290
 XXXZ=              0.0407 YYYX=            -16.1825 YYYZ=              0.0083 ZZZX=             -0.0019
 ZZZY=             -0.0058 XXYY=           -421.7482 XXZZ=           -372.7868 YYZZ=           -116.7859
 XXYZ=              0.0301 YYXZ=             -0.0037 ZZXY=            -11.3761
 N-N= 6.443254533968D+02 E-N=-2.624956171045D+03  KE= 5.693930673101D+02
 ******************************Gaussian NBO Version 3.1******************************
             N A T U R A L   A T O M I C   O R B I T A L   A N D
          N A T U R A L   B O N D   O R B I T A L   A N A L Y S I S
 ******************************Gaussian NBO Version 3.1******************************
       /RESON  / : Allow strongly delocalized NBO set

 Analyzing the SCF density

 Job title: CYH-219-A_eq00005                                               

 Storage needed:   1431180 in NPA,   1906840 in NBO (********** available)
 GSVD:  LWork=       36186 too small for GESVD, short by      839439 words or      839439 for optimal perf.
 Remove ICRem=   51 ICRemI=   12 L=0 PNAO number   51 atom    2 type  51 NPNAO=  690
   due to symmetric orthogonalization 2, value= 0.00D+00.
 GSVD:  LWork=       38060 too small for GESVD, short by      833826 words or      833826 for optimal perf.


 NATURAL POPULATIONS:  Natural atomic orbital occupancies 
                                                          
   NAO  Atom  No  lang   Type(AO)    Occupancy      Energy
 ----------------------------------------------------------
     1    C    1  S      Cor( 1S)     1.99904     -10.41321
     2    C    1  S      Val( 2S)     0.92978      -0.18358
     3    C    1  S      Ryd( 3S)     0.00154       1.65330
     4    C    1  S      Ryd( 4S)     0.00029       2.77232
     5    C    1  S      Ryd( 5S)     0.00003       3.23769
     6    C    1  px     Val( 2p)     1.05737      -0.09287
     7    C    1  px     Ryd( 4p)     0.00566       2.10124
     8    C    1  px     Ryd( 5p)     0.00006       2.80406
     9    C    1  px     Ryd( 3p)     0.00006       0.88646
    10    C    1  py     Val( 2p)     1.10054      -0.08999
    11    C    1  py     Ryd( 4p)     0.00553       1.75480
    12    C    1  py     Ryd( 5p)     0.00031       2.67035
    13    C    1  py     Ryd( 3p)     0.00002       1.19449
    14    C    1  pz     Val( 2p)     1.08359      -0.13461
    15    C    1  pz     Ryd( 4p)     0.00106       0.87793
    16    C    1  pz     Ryd( 5p)     0.00017       2.01349
    17    C    1  pz     Ryd( 3p)     0.00000       0.56051
    18    C    1  dxy    Ryd( 3d)     0.00103       2.48792
    19    C    1  dxy    Ryd( 4d)     0.00050       3.75742
    20    C    1  dxy    Ryd( 5d)     0.00008       4.92138
    21    C    1  dxz    Ryd( 3d)     0.00018       1.31239
    22    C    1  dxz    Ryd( 5d)     0.00011       3.00957
    23    C    1  dxz    Ryd( 4d)     0.00007       2.22408
    24    C    1  dyz    Ryd( 3d)     0.00055       1.15991
    25    C    1  dyz    Ryd( 5d)     0.00009       2.98129
    26    C    1  dyz    Ryd( 4d)     0.00007       2.42205
    27    C    1  dx2y2  Ryd( 3d)     0.00206       3.12550
    28    C    1  dx2y2  Ryd( 4d)     0.00031       3.92241
    29    C    1  dx2y2  Ryd( 5d)     0.00006       4.00388
    30    C    1  dz2    Ryd( 3d)     0.00085       1.37005
    31    C    1  dz2    Ryd( 4d)     0.00016       3.93609
    32    C    1  dz2    Ryd( 5d)     0.00006       4.35151
    33    C    1  f(0)   Ryd( 4f)     0.00051       1.38014
    34    C    1  f(0)   Ryd( 5f)     0.00016       3.57182
    35    C    1  f(C1)  Ryd( 4f)     0.00023       1.78271
    36    C    1  f(C1)  Ryd( 5f)     0.00036       3.70258
    37    C    1  f(S1)  Ryd( 4f)     0.00112       1.80989
    38    C    1  f(S1)  Ryd( 5f)     0.00019       3.75162
    39    C    1  f(C2)  Ryd( 4f)     0.00045       1.39660
    40    C    1  f(C2)  Ryd( 5f)     0.00001       3.63167
    41    C    1  f(S2)  Ryd( 4f)     0.00065       1.24692
    42    C    1  f(S2)  Ryd( 5f)     0.00002       3.61543
    43    C    1  f(C3)  Ryd( 4f)     0.00109       2.54253
    44    C    1  f(C3)  Ryd( 5f)     0.00017       4.27179
    45    C    1  f(S3)  Ryd( 4f)     0.00199       2.29475
    46    C    1  f(S3)  Ryd( 5f)     0.00011       4.45370
 
    47    C    2  S      Cor( 1S)     1.99890     -10.40751
    48    C    2  S      Val( 2S)     0.93982      -0.14535
    49    C    2  S      Ryd( 4S)     0.00039       4.58705
    50    C    2  S      Ryd( 3S)     0.00004       1.54138
    51    C    2  px     Val( 2p)     1.10012      -0.06940
    52    C    2  px     Ryd( 4p)     0.00365       1.77326
    53    C    2  px     Ryd( 5p)     0.00008       2.39067
    54    C    2  px     Ryd( 3p)     0.00007       1.06304
    55    C    2  py     Val( 2p)     1.11019      -0.07048
    56    C    2  py     Ryd( 4p)     0.00429       1.57950
    57    C    2  py     Ryd( 5p)     0.00012       2.28945
    58    C    2  py     Ryd( 3p)     0.00004       1.17988
    59    C    2  pz     Val( 2p)     0.96686      -0.12334
    60    C    2  pz     Ryd( 4p)     0.00089       0.99202
    61    C    2  pz     Ryd( 5p)     0.00004       1.63686
    62    C    2  pz     Ryd( 3p)     0.00004       0.71222
    63    C    2  dxy    Ryd( 3d)     0.00155       2.31617
    64    C    2  dxy    Ryd( 5d)     0.00024       3.65628
    65    C    2  dxy    Ryd( 4d)     0.00009       2.97022
    66    C    2  dxz    Ryd( 3d)     0.00050       1.41938
    67    C    2  dxz    Ryd( 5d)     0.00004       2.75517
    68    C    2  dxz    Ryd( 4d)     0.00003       1.97274
    69    C    2  dyz    Ryd( 3d)     0.00027       1.37722
    70    C    2  dyz    Ryd( 5d)     0.00004       2.59666
    71    C    2  dyz    Ryd( 4d)     0.00005       2.00594
    72    C    2  dx2y2  Ryd( 5d)     0.00140       3.94290
    73    C    2  dx2y2  Ryd( 4d)     0.00024       3.00543
    74    C    2  dx2y2  Ryd( 3d)     0.00019       2.80555
    75    C    2  dz2    Ryd( 3d)     0.00448       1.46017
    76    C    2  dz2    Ryd( 4d)     0.00024       2.97919
    77    C    2  dz2    Ryd( 5d)     0.00010       3.13268
    78    C    2  f(0)   Ryd( 5f)     0.00010       3.61306
    79    C    2  f(0)   Ryd( 4f)     0.00002       2.01733
    80    C    2  f(C1)  Ryd( 5f)     0.00022       3.82267
    81    C    2  f(C1)  Ryd( 4f)     0.00004       3.12052
    82    C    2  f(S1)  Ryd( 5f)     0.00021       3.75125
    83    C    2  f(S1)  Ryd( 4f)     0.00004       2.82581
    84    C    2  f(C2)  Ryd( 5f)     0.00000       3.66832
    85    C    2  f(C2)  Ryd( 4f)     0.00003       2.16163
    86    C    2  f(S2)  Ryd( 5f)     0.00001       3.71506
    87    C    2  f(S2)  Ryd( 4f)     0.00002       2.15019
    88    C    2  f(C3)  Ryd( 4f)     0.00011       4.43328
    89    C    2  f(C3)  Ryd( 5f)     0.00011       4.98392
    90    C    2  f(S3)  Ryd( 5f)     0.00009       4.49386
    91    C    2  f(S3)  Ryd( 4f)     0.00011       4.21659
 
    92    C    3  S      Cor( 1S)     1.99916     -10.40372
    93    C    3  S      Val( 2S)     0.96686      -0.21337
    94    C    3  S      Ryd( 3S)     0.00209       1.43673
    95    C    3  S      Ryd( 5S)     0.00032       3.61860
    96    C    3  S      Ryd( 4S)     0.00002       2.16457
    97    C    3  px     Val( 2p)     1.07735      -0.08151
    98    C    3  px     Ryd( 4p)     0.00338       1.57076
    99    C    3  px     Ryd( 5p)     0.00028       2.33869
   100    C    3  px     Ryd( 3p)     0.00004       0.93205
   101    C    3  py     Val( 2p)     1.15838      -0.08729
   102    C    3  py     Ryd( 4p)     0.00352       1.65105
   103    C    3  py     Ryd( 5p)     0.00008       2.32508
   104    C    3  py     Ryd( 3p)     0.00004       0.92137
   105    C    3  pz     Val( 2p)     1.02878      -0.13358
   106    C    3  pz     Ryd( 4p)     0.00074       1.00588
   107    C    3  pz     Ryd( 5p)     0.00005       1.72455
   108    C    3  pz     Ryd( 3p)     0.00002       0.52387
   109    C    3  dxy    Ryd( 4d)     0.00192       2.81785
   110    C    3  dxy    Ryd( 5d)     0.00020       3.62520
   111    C    3  dxy    Ryd( 3d)     0.00007       2.59924
   112    C    3  dxz    Ryd( 3d)     0.00062       1.50237
   113    C    3  dxz    Ryd( 5d)     0.00002       2.83267
   114    C    3  dxz    Ryd( 4d)     0.00002       1.85625
   115    C    3  dyz    Ryd( 3d)     0.00035       1.51988
   116    C    3  dyz    Ryd( 5d)     0.00003       2.95281
   117    C    3  dyz    Ryd( 4d)     0.00007       1.56247
   118    C    3  dx2y2  Ryd( 3d)     0.00096       2.46523
   119    C    3  dx2y2  Ryd( 5d)     0.00032       3.63438
   120    C    3  dx2y2  Ryd( 4d)     0.00011       3.04188
   121    C    3  dz2    Ryd( 3d)     0.00094       1.68848
   122    C    3  dz2    Ryd( 4d)     0.00016       3.54735
   123    C    3  dz2    Ryd( 5d)     0.00007       3.62304
   124    C    3  f(0)   Ryd( 5f)     0.00014       3.57348
   125    C    3  f(0)   Ryd( 4f)     0.00003       1.98520
   126    C    3  f(C1)  Ryd( 5f)     0.00016       3.81870
   127    C    3  f(C1)  Ryd( 4f)     0.00004       3.01777
   128    C    3  f(S1)  Ryd( 5f)     0.00020       3.75031
   129    C    3  f(S1)  Ryd( 4f)     0.00004       2.60975
   130    C    3  f(C2)  Ryd( 5f)     0.00000       3.67720
   131    C    3  f(C2)  Ryd( 4f)     0.00003       2.32989
   132    C    3  f(S2)  Ryd( 5f)     0.00001       3.68058
   133    C    3  f(S2)  Ryd( 4f)     0.00003       2.08414
   134    C    3  f(C3)  Ryd( 4f)     0.00012       4.28959
   135    C    3  f(C3)  Ryd( 5f)     0.00011       4.87873
   136    C    3  f(S3)  Ryd( 5f)     0.00007       4.38052
   137    C    3  f(S3)  Ryd( 4f)     0.00014       3.94054
 
   138    C    4  S      Cor( 1S)     1.99890     -10.47716
   139    C    4  S      Val( 2S)     0.85214      -0.15525
   140    C    4  S      Ryd( 3S)     0.00189       1.86056
   141    C    4  S      Ryd( 5S)     0.00012       2.53728
   142    C    4  S      Ryd( 4S)     0.00002       1.89764
   143    C    4  px     Val( 2p)     0.75673      -0.03522
   144    C    4  px     Ryd( 4p)     0.00493       1.78365
   145    C    4  px     Ryd( 5p)     0.00009       2.43505
   146    C    4  px     Ryd( 3p)     0.00007       1.36069
   147    C    4  py     Val( 2p)     1.06699      -0.09189
   148    C    4  py     Ryd( 4p)     0.00468       1.87595
   149    C    4  py     Ryd( 5p)     0.00009       2.00183
   150    C    4  py     Ryd( 3p)     0.00002       1.12291
   151    C    4  pz     Val( 2p)     0.98193      -0.14013
   152    C    4  pz     Ryd( 4p)     0.00136       0.97828
   153    C    4  pz     Ryd( 5p)     0.00013       1.48491
   154    C    4  pz     Ryd( 3p)     0.00002       0.79015
   155    C    4  dxy    Ryd( 3d)     0.00205       2.42172
   156    C    4  dxy    Ryd( 4d)     0.00032       2.91375
   157    C    4  dxy    Ryd( 5d)     0.00007       4.58984
   158    C    4  dxz    Ryd( 3d)     0.00106       1.75636
   159    C    4  dxz    Ryd( 4d)     0.00029       2.16141
   160    C    4  dxz    Ryd( 5d)     0.00008       2.79013
   161    C    4  dyz    Ryd( 3d)     0.00046       1.70229
   162    C    4  dyz    Ryd( 4d)     0.00010       2.10824
   163    C    4  dyz    Ryd( 5d)     0.00003       2.76053
   164    C    4  dx2y2  Ryd( 3d)     0.00043       3.01247
   165    C    4  dx2y2  Ryd( 4d)     0.00057       3.18048
   166    C    4  dx2y2  Ryd( 5d)     0.00008       4.45767
   167    C    4  dz2    Ryd( 3d)     0.00054       2.31292
   168    C    4  dz2    Ryd( 4d)     0.00045       2.86914
   169    C    4  dz2    Ryd( 5d)     0.00008       4.06248
   170    C    4  f(0)   Ryd( 4f)     0.00010       1.38326
   171    C    4  f(0)   Ryd( 5f)     0.00021       3.63267
   172    C    4  f(C1)  Ryd( 4f)     0.00078       1.67134
   173    C    4  f(C1)  Ryd( 5f)     0.00013       3.78967
   174    C    4  f(S1)  Ryd( 4f)     0.00049       1.64841
   175    C    4  f(S1)  Ryd( 5f)     0.00017       3.75252
   176    C    4  f(C2)  Ryd( 4f)     0.00050       1.27877
   177    C    4  f(C2)  Ryd( 5f)     0.00003       3.73029
   178    C    4  f(S2)  Ryd( 4f)     0.00059       1.31597
   179    C    4  f(S2)  Ryd( 5f)     0.00002       3.63966
   180    C    4  f(C3)  Ryd( 4f)     0.00098       2.31745
   181    C    4  f(C3)  Ryd( 5f)     0.00009       4.56794
   182    C    4  f(S3)  Ryd( 4f)     0.00224       2.11846
   183    C    4  f(S3)  Ryd( 5f)     0.00011       4.63086
 
   184    C    5  S      Cor( 1S)     1.99914     -10.40674
   185    C    5  S      Val( 2S)     0.90038      -0.16585
   186    C    5  S      Ryd( 3S)     0.00160       1.73959
   187    C    5  S      Ryd( 5S)     0.00013       2.91970
   188    C    5  S      Ryd( 4S)     0.00002       2.69981
   189    C    5  px     Val( 2p)     1.09173      -0.08152
   190    C    5  px     Ryd( 4p)     0.00402       2.36715
   191    C    5  px     Ryd( 5p)     0.00009       2.89139
   192    C    5  px     Ryd( 3p)     0.00003       0.88285
   193    C    5  py     Val( 2p)     1.05596      -0.08870
   194    C    5  py     Ryd( 4p)     0.00496       1.80709
   195    C    5  py     Ryd( 5p)     0.00005       3.07793
   196    C    5  py     Ryd( 3p)     0.00002       0.86363
   197    C    5  pz     Val( 2p)     1.05340      -0.13013
   198    C    5  pz     Ryd( 4p)     0.00069       0.92070
   199    C    5  pz     Ryd( 5p)     0.00010       1.93025
   200    C    5  pz     Ryd( 3p)     0.00000       0.54266
   201    C    5  dxy    Ryd( 3d)     0.00103       3.03584
   202    C    5  dxy    Ryd( 4d)     0.00044       3.84848
   203    C    5  dxy    Ryd( 5d)     0.00006       4.05263
   204    C    5  dxz    Ryd( 3d)     0.00056       1.66857
   205    C    5  dxz    Ryd( 5d)     0.00005       2.88721
   206    C    5  dxz    Ryd( 4d)     0.00004       2.22569
   207    C    5  dyz    Ryd( 3d)     0.00044       1.56445
   208    C    5  dyz    Ryd( 5d)     0.00002       2.83599
   209    C    5  dyz    Ryd( 4d)     0.00004       2.05425
   210    C    5  dx2y2  Ryd( 3d)     0.00114       3.39969
   211    C    5  dx2y2  Ryd( 4d)     0.00023       3.78887
   212    C    5  dx2y2  Ryd( 5d)     0.00007       4.32078
   213    C    5  dz2    Ryd( 3d)     0.00077       2.03601
   214    C    5  dz2    Ryd( 4d)     0.00017       3.45490
   215    C    5  dz2    Ryd( 5d)     0.00005       4.13175
   216    C    5  f(0)   Ryd( 4f)     0.00041       1.46699
   217    C    5  f(0)   Ryd( 5f)     0.00016       3.55265
   218    C    5  f(C1)  Ryd( 4f)     0.00114       2.16222
   219    C    5  f(C1)  Ryd( 5f)     0.00025       3.80802
   220    C    5  f(S1)  Ryd( 4f)     0.00048       1.71968
   221    C    5  f(S1)  Ryd( 5f)     0.00020       3.57993
   222    C    5  f(C2)  Ryd( 4f)     0.00031       1.35499
   223    C    5  f(C2)  Ryd( 5f)     0.00003       3.60596
   224    C    5  f(S2)  Ryd( 4f)     0.00069       1.36297
   225    C    5  f(S2)  Ryd( 5f)     0.00004       3.60388
   226    C    5  f(C3)  Ryd( 4f)     0.00189       2.97310
   227    C    5  f(C3)  Ryd( 5f)     0.00018       4.33836
   228    C    5  f(S3)  Ryd( 4f)     0.00120       2.52498
   229    C    5  f(S3)  Ryd( 5f)     0.00021       4.36645
 
   230    C    6  S      Cor( 1S)     1.99910     -10.40519
   231    C    6  S      Val( 2S)     0.95057      -0.19968
   232    C    6  S      Ryd( 3S)     0.00102       1.91070
   233    C    6  S      Ryd( 5S)     0.00017       2.92728
   234    C    6  S      Ryd( 4S)     0.00002       2.04271
   235    C    6  px     Val( 2p)     1.04753      -0.06392
   236    C    6  px     Ryd( 4p)     0.00280       1.84333
   237    C    6  px     Ryd( 5p)     0.00011       2.47747
   238    C    6  px     Ryd( 3p)     0.00005       1.49763
   239    C    6  py     Val( 2p)     1.16818      -0.08214
   240    C    6  py     Ryd( 4p)     0.00398       1.79957
   241    C    6  py     Ryd( 5p)     0.00009       2.61090
   242    C    6  py     Ryd( 3p)     0.00006       1.32545
   243    C    6  pz     Val( 2p)     0.95746      -0.12507
   244    C    6  pz     Ryd( 4p)     0.00089       0.98249
   245    C    6  pz     Ryd( 5p)     0.00003       1.72259
   246    C    6  pz     Ryd( 3p)     0.00006       0.74405
   247    C    6  dxy    Ryd( 4d)     0.00170       3.48208
   248    C    6  dxy    Ryd( 5d)     0.00018       3.99540
   249    C    6  dxy    Ryd( 3d)     0.00012       3.43381
   250    C    6  dxz    Ryd( 3d)     0.00033       1.42071
   251    C    6  dxz    Ryd( 5d)     0.00013       2.95746
   252    C    6  dxz    Ryd( 4d)     0.00004       2.19531
   253    C    6  dyz    Ryd( 3d)     0.00028       1.30430
   254    C    6  dyz    Ryd( 5d)     0.00008       2.95122
   255    C    6  dyz    Ryd( 4d)     0.00006       2.11407
   256    C    6  dx2y2  Ryd( 3d)     0.00172       3.07808
   257    C    6  dx2y2  Ryd( 5d)     0.00023       3.89523
   258    C    6  dx2y2  Ryd( 4d)     0.00006       3.51591
   259    C    6  dz2    Ryd( 3d)     0.00086       1.63868
   260    C    6  dz2    Ryd( 4d)     0.00017       3.51394
   261    C    6  dz2    Ryd( 5d)     0.00006       4.19998
   262    C    6  f(0)   Ryd( 4f)     0.00015       1.39334
   263    C    6  f(0)   Ryd( 5f)     0.00010       3.49736
   264    C    6  f(C1)  Ryd( 4f)     0.00034       2.08050
   265    C    6  f(C1)  Ryd( 5f)     0.00025       3.75073
   266    C    6  f(S1)  Ryd( 4f)     0.00053       1.79654
   267    C    6  f(S1)  Ryd( 5f)     0.00013       3.63945
   268    C    6  f(C2)  Ryd( 4f)     0.00037       1.38768
   269    C    6  f(C2)  Ryd( 5f)     0.00002       3.55423
   270    C    6  f(S2)  Ryd( 4f)     0.00023       1.37167
   271    C    6  f(S2)  Ryd( 5f)     0.00002       3.55450
   272    C    6  f(C3)  Ryd( 4f)     0.00049       3.11835
   273    C    6  f(C3)  Ryd( 5f)     0.00020       4.25413
   274    C    6  f(S3)  Ryd( 4f)     0.00089       2.32856
   275    C    6  f(S3)  Ryd( 5f)     0.00015       4.47864
 
   276    C    7  S      Cor( 1S)     1.99938     -10.55763
   277    C    7  S      Val( 2S)     0.79100      -0.14225
   278    C    7  S      Ryd( 4S)     0.00425       1.87905
   279    C    7  S      Ryd( 3S)     0.00016       1.81425
   280    C    7  S      Ryd( 5S)     0.00007       2.33182
   281    C    7  px     Val( 2p)     0.91608      -0.05173
   282    C    7  px     Ryd( 5p)     0.00777       1.54972
   283    C    7  px     Ryd( 3p)     0.00024       1.11597
   284    C    7  px     Ryd( 4p)     0.00001       1.40001
   285    C    7  py     Val( 2p)     0.71585      -0.01711
   286    C    7  py     Ryd( 4p)     0.01204       1.56885
   287    C    7  py     Ryd( 3p)     0.00008       1.32761
   288    C    7  py     Ryd( 5p)     0.00005       1.71928
   289    C    7  pz     Val( 2p)     0.73894      -0.12224
   290    C    7  pz     Ryd( 5p)     0.00039       1.11671
   291    C    7  pz     Ryd( 3p)     0.00008       0.73418
   292    C    7  pz     Ryd( 4p)     0.00003       1.00170
   293    C    7  dxy    Ryd( 4d)     0.00062       3.07239
   294    C    7  dxy    Ryd( 3d)     0.00025       2.46261
   295    C    7  dxy    Ryd( 5d)     0.00010       3.89350
   296    C    7  dxz    Ryd( 4d)     0.00121       2.43342
   297    C    7  dxz    Ryd( 3d)     0.00014       1.72277
   298    C    7  dxz    Ryd( 5d)     0.00007       2.51922
   299    C    7  dyz    Ryd( 4d)     0.00158       2.47312
   300    C    7  dyz    Ryd( 3d)     0.00005       1.82387
   301    C    7  dyz    Ryd( 5d)     0.00004       2.64549
   302    C    7  dx2y2  Ryd( 4d)     0.00221       3.16478
   303    C    7  dx2y2  Ryd( 3d)     0.00021       2.25304
   304    C    7  dx2y2  Ryd( 5d)     0.00007       3.65913
   305    C    7  dz2    Ryd( 5d)     0.00031       3.32466
   306    C    7  dz2    Ryd( 3d)     0.00057       2.29987
   307    C    7  dz2    Ryd( 4d)     0.00011       3.22755
   308    C    7  f(0)   Ryd( 5f)     0.00009       3.39078
   309    C    7  f(0)   Ryd( 4f)     0.00003       2.49170
   310    C    7  f(C1)  Ryd( 5f)     0.00012       3.56141
   311    C    7  f(C1)  Ryd( 4f)     0.00002       3.25911
   312    C    7  f(S1)  Ryd( 5f)     0.00006       3.60176
   313    C    7  f(S1)  Ryd( 4f)     0.00004       3.23251
   314    C    7  f(C2)  Ryd( 5f)     0.00001       3.35175
   315    C    7  f(C2)  Ryd( 4f)     0.00003       2.72930
   316    C    7  f(S2)  Ryd( 5f)     0.00001       3.48978
   317    C    7  f(S2)  Ryd( 4f)     0.00002       2.80294
   318    C    7  f(C3)  Ryd( 4f)     0.00008       4.38018
   319    C    7  f(C3)  Ryd( 5f)     0.00003       6.92330
   320    C    7  f(S3)  Ryd( 4f)     0.00009       4.53519
   321    C    7  f(S3)  Ryd( 5f)     0.00003       5.46811
 
   322    O    8  S      Cor( 1S)     1.99973     -19.48388
   323    O    8  S      Val( 2S)     1.58316      -0.99839
   324    O    8  S      Ryd( 4S)     0.00098       2.89498
   325    O    8  S      Ryd( 3S)     0.00016       2.07431
   326    O    8  S      Ryd( 5S)     0.00001      10.33503
   327    O    8  px     Val( 2p)     1.48418      -0.38996
   328    O    8  px     Ryd( 4p)     0.00176       1.96825
   329    O    8  px     Ryd( 3p)     0.00013       1.02058
   330    O    8  px     Ryd( 5p)     0.00005       5.22305
   331    O    8  py     Val( 2p)     1.60781      -0.41512
   332    O    8  py     Ryd( 4p)     0.00173       1.66570
   333    O    8  py     Ryd( 3p)     0.00010       1.00984
   334    O    8  py     Ryd( 5p)     0.00005       5.25024
   335    O    8  pz     Val( 2p)     1.73339      -0.41402
   336    O    8  pz     Ryd( 4p)     0.00181       1.00521
   337    O    8  pz     Ryd( 3p)     0.00002       0.62663
   338    O    8  pz     Ryd( 5p)     0.00000       4.20956
   339    O    8  dxy    Ryd( 3d)     0.00272       2.11909
   340    O    8  dxy    Ryd( 4d)     0.00019       3.55837
   341    O    8  dxy    Ryd( 5d)     0.00005       5.69017
   342    O    8  dxz    Ryd( 3d)     0.00183       1.45310
   343    O    8  dxz    Ryd( 4d)     0.00005       3.25595
   344    O    8  dxz    Ryd( 5d)     0.00002       5.11332
   345    O    8  dyz    Ryd( 3d)     0.00301       1.46823
   346    O    8  dyz    Ryd( 4d)     0.00001       3.24220
   347    O    8  dyz    Ryd( 5d)     0.00002       5.02374
   348    O    8  dx2y2  Ryd( 3d)     0.00648       2.82936
   349    O    8  dx2y2  Ryd( 4d)     0.00010       4.26006
   350    O    8  dx2y2  Ryd( 5d)     0.00008       5.64152
   351    O    8  dz2    Ryd( 3d)     0.00366       1.71135
   352    O    8  dz2    Ryd( 4d)     0.00006       3.49408
   353    O    8  dz2    Ryd( 5d)     0.00003       5.34970
   354    O    8  f(0)   Ryd( 4f)     0.00041       2.97326
   355    O    8  f(0)   Ryd( 5f)     0.00001       5.90256
   356    O    8  f(C1)  Ryd( 4f)     0.00011       4.35822
   357    O    8  f(C1)  Ryd( 5f)     0.00002       6.29160
   358    O    8  f(S1)  Ryd( 4f)     0.00016       3.97974
   359    O    8  f(S1)  Ryd( 5f)     0.00001       6.19705
   360    O    8  f(C2)  Ryd( 4f)     0.00004       3.09538
   361    O    8  f(C2)  Ryd( 5f)     0.00001       6.08519
   362    O    8  f(S2)  Ryd( 4f)     0.00002       2.93850
   363    O    8  f(S2)  Ryd( 5f)     0.00001       6.24747
   364    O    8  f(C3)  Ryd( 4f)     0.00008       4.64356
   365    O    8  f(C3)  Ryd( 5f)     0.00007       6.57521
   366    O    8  f(S3)  Ryd( 4f)     0.00005       3.97666
   367    O    8  f(S3)  Ryd( 5f)     0.00005       6.50214
 
   368    C    9  S      Cor( 1S)     1.99913     -10.48183
   369    C    9  S      Val( 2S)     0.94741      -0.24421
   370    C    9  S      Ryd( 4S)     0.00138       1.66663
   371    C    9  S      Ryd( 5S)     0.00009       2.19860
   372    C    9  S      Ryd( 3S)     0.00009       1.52800
   373    C    9  px     Val( 2p)     1.13215      -0.09807
   374    C    9  px     Ryd( 5p)     0.00246       1.74160
   375    C    9  px     Ryd( 4p)     0.00009       1.60982
   376    C    9  px     Ryd( 3p)     0.00008       1.10280
   377    C    9  py     Val( 2p)     0.74438      -0.04623
   378    C    9  py     Ryd( 4p)     0.00722       1.47464
   379    C    9  py     Ryd( 5p)     0.00026       1.50050
   380    C    9  py     Ryd( 3p)     0.00004       1.26003
   381    C    9  pz     Val( 2p)     1.00551      -0.15432
   382    C    9  pz     Ryd( 4p)     0.00218       1.03037
   383    C    9  pz     Ryd( 5p)     0.00010       1.24644
   384    C    9  pz     Ryd( 3p)     0.00004       0.72167
   385    C    9  dxy    Ryd( 4d)     0.00188       2.77004
   386    C    9  dxy    Ryd( 5d)     0.00012       3.28980
   387    C    9  dxy    Ryd( 3d)     0.00007       2.38152
   388    C    9  dxz    Ryd( 3d)     0.00046       1.53502
   389    C    9  dxz    Ryd( 5d)     0.00024       2.64259
   390    C    9  dxz    Ryd( 4d)     0.00002       1.56205
   391    C    9  dyz    Ryd( 3d)     0.00186       1.37435
   392    C    9  dyz    Ryd( 5d)     0.00005       2.51396
   393    C    9  dyz    Ryd( 4d)     0.00004       1.86444
   394    C    9  dx2y2  Ryd( 3d)     0.00160       2.17224
   395    C    9  dx2y2  Ryd( 5d)     0.00020       3.27638
   396    C    9  dx2y2  Ryd( 4d)     0.00005       2.30949
   397    C    9  dz2    Ryd( 3d)     0.00071       2.17460
   398    C    9  dz2    Ryd( 5d)     0.00016       3.69303
   399    C    9  dz2    Ryd( 4d)     0.00013       2.93117
   400    C    9  f(0)   Ryd( 5f)     0.00016       3.59345
   401    C    9  f(0)   Ryd( 4f)     0.00010       1.86724
   402    C    9  f(C1)  Ryd( 5f)     0.00021       3.76525
   403    C    9  f(C1)  Ryd( 4f)     0.00004       2.50526
   404    C    9  f(S1)  Ryd( 5f)     0.00009       3.66989
   405    C    9  f(S1)  Ryd( 4f)     0.00004       2.14684
   406    C    9  f(C2)  Ryd( 5f)     0.00003       3.70668
   407    C    9  f(C2)  Ryd( 4f)     0.00003       2.02660
   408    C    9  f(S2)  Ryd( 5f)     0.00001       3.65148
   409    C    9  f(S2)  Ryd( 4f)     0.00005       2.00316
   410    C    9  f(C3)  Ryd( 5f)     0.00007       4.65755
   411    C    9  f(C3)  Ryd( 4f)     0.00008       3.72000
   412    C    9  f(S3)  Ryd( 5f)     0.00008       4.66046
   413    C    9  f(S3)  Ryd( 4f)     0.00004       3.61869
 
   414    C   10  S      Cor( 1S)     1.99916     -10.40150
   415    C   10  S      Val( 2S)     0.97572      -0.22631
   416    C   10  S      Ryd( 3S)     0.00083       1.85722
   417    C   10  S      Ryd( 5S)     0.00008       3.07927
   418    C   10  S      Ryd( 4S)     0.00003       1.86769
   419    C   10  px     Val( 2p)     1.02749      -0.09060
   420    C   10  px     Ryd( 4p)     0.00308       1.57717
   421    C   10  px     Ryd( 5p)     0.00009       1.99378
   422    C   10  px     Ryd( 3p)     0.00006       0.75463
   423    C   10  py     Val( 2p)     1.19255      -0.09204
   424    C   10  py     Ryd( 4p)     0.00298       1.82386
   425    C   10  py     Ryd( 5p)     0.00006       2.40359
   426    C   10  py     Ryd( 3p)     0.00005       0.88193
   427    C   10  pz     Val( 2p)     1.08512      -0.14168
   428    C   10  pz     Ryd( 4p)     0.00121       1.04420
   429    C   10  pz     Ryd( 5p)     0.00002       1.72881
   430    C   10  pz     Ryd( 3p)     0.00002       0.49185
   431    C   10  dxy    Ryd( 4d)     0.00156       3.36394
   432    C   10  dxy    Ryd( 5d)     0.00043       3.97832
   433    C   10  dxy    Ryd( 3d)     0.00004       1.59579
   434    C   10  dxz    Ryd( 3d)     0.00126       1.35666
   435    C   10  dxz    Ryd( 5d)     0.00004       2.98084
   436    C   10  dxz    Ryd( 4d)     0.00002       1.72032
   437    C   10  dyz    Ryd( 4d)     0.00037       1.46792
   438    C   10  dyz    Ryd( 5d)     0.00005       3.11958
   439    C   10  dyz    Ryd( 3d)     0.00004       1.21432
   440    C   10  dx2y2  Ryd( 3d)     0.00100       2.25818
   441    C   10  dx2y2  Ryd( 5d)     0.00015       3.68454
   442    C   10  dx2y2  Ryd( 4d)     0.00006       2.78815
   443    C   10  dz2    Ryd( 3d)     0.00114       1.80566
   444    C   10  dz2    Ryd( 5d)     0.00007       3.63925
   445    C   10  dz2    Ryd( 4d)     0.00009       3.36334
   446    C   10  f(0)   Ryd( 5f)     0.00017       3.62749
   447    C   10  f(0)   Ryd( 4f)     0.00003       1.91976
   448    C   10  f(C1)  Ryd( 5f)     0.00017       3.73215
   449    C   10  f(C1)  Ryd( 4f)     0.00004       2.59651
   450    C   10  f(S1)  Ryd( 5f)     0.00019       3.87677
   451    C   10  f(S1)  Ryd( 4f)     0.00002       2.51702
   452    C   10  f(C2)  Ryd( 5f)     0.00001       3.65750
   453    C   10  f(C2)  Ryd( 4f)     0.00005       2.04631
   454    C   10  f(S2)  Ryd( 5f)     0.00001       3.68465
   455    C   10  f(S2)  Ryd( 4f)     0.00001       2.00387
   456    C   10  f(C3)  Ryd( 5f)     0.00003       4.58796
   457    C   10  f(C3)  Ryd( 4f)     0.00013       3.94378
   458    C   10  f(S3)  Ryd( 5f)     0.00013       4.48339
   459    C   10  f(S3)  Ryd( 4f)     0.00005       4.35407
 
   460    H   11  S      Val( 1S)     0.76293       0.07942
   461    H   11  S      Ryd( 4S)     0.00063       1.98801
   462    H   11  S      Ryd( 2S)     0.00015       0.58419
   463    H   11  S      Ryd( 3S)     0.00008       1.96564
   464    H   11  px     Ryd( 2p)     0.00062       1.20808
   465    H   11  px     Ryd( 4p)     0.00019       3.92142
   466    H   11  px     Ryd( 3p)     0.00003       3.53655
   467    H   11  py     Ryd( 2p)     0.00072       1.06993
   468    H   11  py     Ryd( 4p)     0.00012       4.01815
   469    H   11  py     Ryd( 3p)     0.00006       3.56396
   470    H   11  pz     Ryd( 2p)     0.00018       0.80716
   471    H   11  pz     Ryd( 4p)     0.00004       3.76855
   472    H   11  pz     Ryd( 3p)     0.00011       1.73953
   473    H   11  dxy    Ryd( 3d)     0.00011       2.98550
   474    H   11  dxy    Ryd( 4d)     0.00008       3.98887
   475    H   11  dxz    Ryd( 3d)     0.00002       1.79422
   476    H   11  dxz    Ryd( 4d)     0.00001       3.64085
   477    H   11  dyz    Ryd( 3d)     0.00001       1.83057
   478    H   11  dyz    Ryd( 4d)     0.00001       3.62882
   479    H   11  dx2y2  Ryd( 3d)     0.00004       2.59360
   480    H   11  dx2y2  Ryd( 4d)     0.00002       4.00209
   481    H   11  dz2    Ryd( 3d)     0.00005       2.26088
   482    H   11  dz2    Ryd( 4d)     0.00003       3.74510
 
   483    H   12  S      Val( 1S)     0.77067       0.04858
   484    H   12  S      Ryd( 4S)     0.00043       1.99029
   485    H   12  S      Ryd( 2S)     0.00011       0.57865
   486    H   12  S      Ryd( 3S)     0.00003       1.72548
   487    H   12  px     Ryd( 2p)     0.00070       0.97970
   488    H   12  px     Ryd( 4p)     0.00006       3.88636
   489    H   12  px     Ryd( 3p)     0.00012       2.65163
   490    H   12  py     Ryd( 2p)     0.00090       0.94891
   491    H   12  py     Ryd( 4p)     0.00014       4.98847
   492    H   12  py     Ryd( 3p)     0.00005       3.87949
   493    H   12  pz     Ryd( 2p)     0.00031       0.68146
   494    H   12  pz     Ryd( 4p)     0.00007       3.48636
   495    H   12  pz     Ryd( 3p)     0.00001       2.12352
   496    H   12  dxy    Ryd( 3d)     0.00006       2.01219
   497    H   12  dxy    Ryd( 4d)     0.00003       4.32543
   498    H   12  dxz    Ryd( 3d)     0.00003       1.34621
   499    H   12  dxz    Ryd( 4d)     0.00000       3.77375
   500    H   12  dyz    Ryd( 3d)     0.00000       1.55656
   501    H   12  dyz    Ryd( 4d)     0.00002       4.05120
   502    H   12  dx2y2  Ryd( 3d)     0.00005       2.33417
   503    H   12  dx2y2  Ryd( 4d)     0.00005       4.25555
   504    H   12  dz2    Ryd( 3d)     0.00003       1.75872
   505    H   12  dz2    Ryd( 4d)     0.00003       3.92393
 
   506    H   13  S      Val( 1S)     0.76633       0.05848
   507    H   13  S      Ryd( 4S)     0.00053       1.94750
   508    H   13  S      Ryd( 2S)     0.00011       0.78994
   509    H   13  S      Ryd( 3S)     0.00005       1.89870
   510    H   13  px     Ryd( 2p)     0.00059       1.14784
   511    H   13  px     Ryd( 4p)     0.00007       4.38325
   512    H   13  px     Ryd( 3p)     0.00008       3.62715
   513    H   13  py     Ryd( 2p)     0.00072       0.85723
   514    H   13  py     Ryd( 3p)     0.00023       4.56502
   515    H   13  py     Ryd( 4p)     0.00005       4.59805
   516    H   13  pz     Ryd( 2p)     0.00033       0.50447
   517    H   13  pz     Ryd( 4p)     0.00003       4.12227
   518    H   13  pz     Ryd( 3p)     0.00005       2.16840
   519    H   13  dxy    Ryd( 3d)     0.00007       2.17963
   520    H   13  dxy    Ryd( 4d)     0.00003       4.55876
   521    H   13  dxz    Ryd( 3d)     0.00004       1.54219
   522    H   13  dxz    Ryd( 4d)     0.00001       3.80122
   523    H   13  dyz    Ryd( 3d)     0.00002       1.54592
   524    H   13  dyz    Ryd( 4d)     0.00002       4.06780
   525    H   13  dx2y2  Ryd( 3d)     0.00004       2.15658
   526    H   13  dx2y2  Ryd( 4d)     0.00003       4.64695
   527    H   13  dz2    Ryd( 3d)     0.00003       2.35681
   528    H   13  dz2    Ryd( 4d)     0.00003       4.30837
 
   529    O   14  S      Cor( 1S)     1.99977     -19.32862
   530    O   14  S      Val( 2S)     1.70214      -1.00468
   531    O   14  S      Ryd( 4S)     0.00080       2.95967
   532    O   14  S      Ryd( 3S)     0.00020       1.65576
   533    O   14  S      Ryd( 5S)     0.00001       8.42916
   534    O   14  px     Val( 2p)     1.70924      -0.34289
   535    O   14  px     Ryd( 4p)     0.00114       1.44513
   536    O   14  px     Ryd( 3p)     0.00011       0.70734
   537    O   14  px     Ryd( 5p)     0.00005       5.04152
   538    O   14  py     Val( 2p)     1.70072      -0.34508
   539    O   14  py     Ryd( 4p)     0.00169       1.39445
   540    O   14  py     Ryd( 3p)     0.00009       0.62458
   541    O   14  py     Ryd( 5p)     0.00004       5.17405
   542    O   14  pz     Val( 2p)     1.46552      -0.29282
   543    O   14  pz     Ryd( 4p)     0.00059       1.02109
   544    O   14  pz     Ryd( 3p)     0.00002       0.50062
   545    O   14  pz     Ryd( 5p)     0.00001       4.22748
   546    O   14  dxy    Ryd( 3d)     0.00861       2.06943
   547    O   14  dxy    Ryd( 4d)     0.00010       3.51635
   548    O   14  dxy    Ryd( 5d)     0.00001       6.56773
   549    O   14  dxz    Ryd( 3d)     0.00342       1.47202
   550    O   14  dxz    Ryd( 4d)     0.00002       1.75682
   551    O   14  dxz    Ryd( 5d)     0.00002       6.38706
   552    O   14  dyz    Ryd( 3d)     0.00376       1.49759
   553    O   14  dyz    Ryd( 4d)     0.00003       1.74616
   554    O   14  dyz    Ryd( 5d)     0.00002       6.37434
   555    O   14  dx2y2  Ryd( 3d)     0.00584       1.77190
   556    O   14  dx2y2  Ryd( 4d)     0.00007       2.03494
   557    O   14  dx2y2  Ryd( 5d)     0.00007       6.45307
   558    O   14  dz2    Ryd( 3d)     0.00284       1.62403
   559    O   14  dz2    Ryd( 4d)     0.00009       2.51721
   560    O   14  dz2    Ryd( 5d)     0.00001       6.47977
   561    O   14  f(0)   Ryd( 4f)     0.00015       3.07960
   562    O   14  f(0)   Ryd( 5f)     0.00000       5.52348
   563    O   14  f(C1)  Ryd( 4f)     0.00010       3.38258
   564    O   14  f(C1)  Ryd( 5f)     0.00001       5.68594
   565    O   14  f(S1)  Ryd( 4f)     0.00008       3.37713
   566    O   14  f(S1)  Ryd( 5f)     0.00001       5.71525
   567    O   14  f(C2)  Ryd( 4f)     0.00002       3.01171
   568    O   14  f(C2)  Ryd( 5f)     0.00001       5.75875
   569    O   14  f(S2)  Ryd( 4f)     0.00038       3.16505
   570    O   14  f(S2)  Ryd( 5f)     0.00001       5.61702
   571    O   14  f(C3)  Ryd( 4f)     0.00036       3.85445
   572    O   14  f(C3)  Ryd( 5f)     0.00002       6.00771
   573    O   14  f(S3)  Ryd( 4f)     0.00052       3.77447
   574    O   14  f(S3)  Ryd( 5f)     0.00002       6.00895
 
   575    O   15  S      Cor( 1S)     1.99978     -19.45851
   576    O   15  S      Val( 2S)     1.67505      -1.03956
   577    O   15  S      Ryd( 3S)     0.00056       1.77467
   578    O   15  S      Ryd( 4S)     0.00006       2.43439
   579    O   15  S      Ryd( 5S)     0.00001       9.34076
   580    O   15  px     Val( 2p)     1.57373      -0.37926
   581    O   15  px     Ryd( 4p)     0.00067       1.20124
   582    O   15  px     Ryd( 3p)     0.00008       1.04738
   583    O   15  px     Ryd( 5p)     0.00005       5.07497
   584    O   15  py     Val( 2p)     1.59305      -0.39700
   585    O   15  py     Ryd( 4p)     0.00089       1.08040
   586    O   15  py     Ryd( 3p)     0.00009       0.68197
   587    O   15  py     Ryd( 5p)     0.00008       5.04571
   588    O   15  pz     Val( 2p)     1.84041      -0.41643
   589    O   15  pz     Ryd( 4p)     0.00111       0.84888
   590    O   15  pz     Ryd( 3p)     0.00000       0.65656
[...]
 0274363,0.0128451,-0.0646394,2.2308435,-0.0727283,-0.1582585,-0.265741
 8,1.6878557,0.0809044,-0.1665681,0.0651038,0.3460401,-0.9960322,-0.183
 3072,0.0633795,0.1344549,-0.6940439,-0.0359925,0.0772708,-0.0100508,-0
 .1280234,0.0479667,-0.0005618,-0.0092207,0.0150691,0.6543385,0.030178,
 -0.0085304,0.0314472,-0.0625891,-0.1342121,0.150038,0.0021306,0.061476
 8,-0.0201095,0.0023362,-0.0017435,-0.0048908,-0.1884846,0.0829597,-0.0
 510574,0.001696,-0.0294718,0.0594277,-0.00072,0.0026371,0.0010382,0.13
 08303,0.0589714,0.0284746,0.008517,0.0206636,-0.0039684,-0.0083283,0.0
 081698,-0.008968,0.1470535,0.1056097,-0.0047584,0.0018177,0.0110602,0.
 0117602,-0.0060859,0.0025098,-0.0047935,0.1299591,-1.4161056,-0.304760
 9,0.0719235,-0.2262247,-0.8106142,-0.0006691,0.0751371,0.0056001,-0.37
 74384,-0.6883172,0.3597117,0.0424508,0.4471709,-1.2661517,-0.0759914,0
 .0461941,-0.0686577,-0.3670216,0.290504,-0.0747367,-0.0002487,-0.12179
 7,0.3312467,0.0100878,-0.0023025,0.006256,0.3279149,0.0318254,-0.01560
 65,0.0106629,-0.0033567,0.0782692,-0.0037684,0.0111936,-0.0027697,0.16
 97813,0.0585096,-0.0287356,0.007517,-0.0423527,0.016672,-0.0030651,0.0
 069219,-0.0041751,0.1652375\Polar=164.3843009,2.6584933,114.3760793,-8
 .1502192,2.0234888,63.8213236\Quadrupole=0.8547523,2.9056688,-3.760421
 1,-2.556365,-0.493632,0.5019039\PG=C01 [X(C9H6O3)]\NImag=0\\0.66074551
 ,0.03439528,0.69609175,-0.04051181,0.02122095,0.15009554,-0.12605574,-
 0.00115864,0.00473144,0.74708421,0.06325727,-0.28931505,-0.01485217,0.
 03804072,0.67046196,0.00754366,-0.00959476,-0.06853807,-0.04763278,0.0
 1992847,0.14787870,-0.00120973,0.08576879,0.00442860,-0.34221043,0.035
 21537,0.02448925,0.68180899,0.03230227,0.00321803,-0.00280987,0.106480
 45,-0.15531255,-0.01280947,-0.03254646,0.76889952,0.00209478,-0.007173
 73,0.00667528,0.02760079,-0.00699209,-0.06355748,-0.04648917,0.0305769
 8,0.13473254,-0.00111866,-0.02882166,-0.00166177,-0.06704049,0.0024984
 1,0.00584197,-0.19595386,-0.13773434,0.00511727,0.71412633,-0.01638998
 ,-0.06394124,-0.00119074,-0.05240953,0.06554608,0.00700087,-0.07624832
 ,-0.26634168,-0.00280921,0.10384143,0.74515083,-0.00111900,-0.00017583
 ,-0.00597230,0.00344357,0.00251975,0.00303058,0.00780359,0.00220983,-0
 .06008800,-0.04026072,0.01684953,0.16930976,-0.06038821,-0.05418628,0.
 00317905,-0.03184527,0.04390565,0.00420642,0.05561209,-0.00848505,-0.0
 0428744,-0.11727986,-0.00518951,0.00244534,0.78395582,-0.00526804,0.04
 974496,0.00227424,0.02818889,-0.03442036,-0.00363798,-0.04879409,-0.03
 478163,0.00213028,0.06034262,-0.28782839,-0.01380289,-0.05218912,0.621
 24714,0.00531723,0.00626551,0.00740260,0.00351980,-0.00492140,-0.00430
 857,-0.00604788,-0.00115970,0.00807288,0.00530740,-0.00845328,-0.08534
 965,-0.05390836,0.02478070,0.15685851,-0.22338181,-0.07875301,0.009599
 54,0.05195295,-0.06157644,-0.00633549,-0.06224793,-0.01263727,0.004416
 14,0.01143932,0.08228567,0.00284046,-0.30433606,0.04789216,0.02189553,
 0.67007104,-0.13958543,-0.24184589,0.00361166,-0.00803004,-0.05040093,
 -0.00186496,-0.02000877,-0.00436265,0.00150345,0.03817227,0.00727863,-
 0.00289484,0.09260984,-0.15064668,-0.01144557,-0.02322833,0.75624246,0
 .00694061,-0.00135270,-0.06431648,-0.00399635,0.00250677,0.00772233,0.
 00409400,0.00090151,-0.00167788,0.00091382,-0.00649483,0.00185615,0.02
 385074,-0.00779606,-0.06396300,-0.04406236,0.02869581,0.14753088,-0.19
 507524,0.02843013,0.01044844,-0.01392045,0.02481177,0.00225265,0.00898
 392,-0.00014529,-0.00022907,-0.00774818,0.00081642,0.00061363,0.004174
 85,-0.00672681,0.00007628,-0.03186337,-0.00569363,0.00226264,0.8659628
 9,0.03783589,-0.10933514,-0.00426534,0.03246953,-0.00301857,-0.0028016
 0,0.00257477,-0.00753401,-0.00081326,-0.00029874,-0.00490566,-0.000160
 72,-0.00883256,-0.00268433,0.00022330,-0.01583841,0.01708820,0.0020882
 6,0.19523989,0.76028850,0.01083454,-0.00348982,-0.08346711,0.00258872,
 -0.00217201,0.00011854,-0.00010847,-0.00059197,0.00625209,0.00056366,-
 0.00025162,-0.00072541,-0.00001365,0.00005165,0.00872477,0.00181975,0.
 00125525,-0.00117774,-0.04409986,0.00775291,0.22299560,-0.01030775,0.0
 1080905,0.00125907,0.01406135,-0.01062746,-0.00113201,-0.05040559,-0.0
 0281414,0.00390835,-0.26033682,0.07162580,0.01897356,-0.05195046,0.039
 25833,0.00688532,0.00324954,0.00414151,0.00028810,0.01068539,-0.002413
 18,-0.00099272,0.48183699,-0.00585136,-0.00664563,0.00021588,-0.006230
 40,0.00073383,0.00028417,-0.02419661,0.02110497,0.00294091,0.01982571,
 -0.12276070,-0.00408818,0.00742932,-0.02765909,-0.00231216,0.00991829,
 -0.00403898,-0.00118467,0.00159844,-0.00169641,-0.00019612,0.00682940,
 0.46963040,0.00053183,-0.00114350,-0.00075445,-0.00094011,0.00064248,0
 .00597774,0.00297381,0.00119548,-0.00120599,0.01671135,-0.00831607,-0.
 06793030,0.00549497,-0.00490955,0.01073640,0.00053993,-0.00071305,0.00
 447801,-0.00081795,0.00013130,-0.00011869,-0.03180479,0.01608752,0.091
 81821,-0.00224083,-0.00864180,-0.00017906,-0.00782008,0.00434696,0.000
 88381,0.00487373,0.00785343,0.00012090,-0.08806885,-0.04519680,0.00605
 382,-0.06806203,0.00178404,0.00653471,0.00712651,-0.00455960,-0.000501
 30,-0.00002545,-0.00135177,-0.00011497,-0.11710248,-0.03772604,0.00292
 661,0.90380463,0.01065134,0.00749268,-0.00054982,-0.00024069,-0.007326
 17,-0.00033034,0.00484979,-0.00003959,-0.00049155,-0.06034550,-0.01079
 967,0.00400466,0.05301597,0.02223352,-0.00383865,-0.02179374,-0.006859
 86,0.00132913,-0.00491743,0.00186396,0.00051388,-0.07085076,-0.2437192
 7,-0.00219420,-0.10813517,0.60302042,0.00066354,0.00102437,0.00018023,
 0.00068339,-0.00070455,0.00059555,-0.00001025,-0.00073671,0.00212173,0
 .00539203,0.00276811,0.00996444,0.00877158,0.00034338,0.01033827,-0.00
 125403,-0.00007712,0.00352399,-0.00027079,0.00022280,-0.00068094,0.001
 48014,-0.00489840,-0.06139496,-0.06748257,0.02927239,0.14173236,0.0076
 9197,0.01659818,0.00063352,0.00413106,-0.01080227,-0.00088865,-0.00566
 640,0.00037366,0.00066554,0.00920080,-0.03862982,-0.00161133,-0.205253
 67,-0.07092162,0.00867326,-0.04197666,-0.01673393,0.00271694,-0.001972
 84,0.00078201,0.00030317,-0.00142678,0.02207664,0.00231104,-0.27949889
 ,0.17489463,0.02505499,0.58338250,0.00341545,0.00148950,-0.00050086,0.
 00316922,-0.00156585,-0.00028447,-0.00015808,-0.00627539,-0.00036107,-
 0.00898918,-0.03957683,-0.00143752,-0.07403819,-0.14826714,0.00223193,
 0.00666333,0.01534835,0.00011489,-0.00004638,0.00121743,-0.00000107,-0
 .01226444,-0.08550082,-0.00339236,0.18768564,-0.29698528,-0.02540356,-
 0.04129408,0.90308635,0.00005736,-0.00157608,0.00649266,-0.00027813,0.
 00085571,-0.00091517,0.00064196,-0.00040470,0.00221685,-0.00031617,0.0
 0098186,0.01019908,0.00853801,0.00197717,-0.06162504,0.00373900,0.0020
 2458,0.00005246,0.00026683,-0.00006852,0.00129776,0.00081054,-0.006194
 70,0.01473778,0.02561351,-0.02435962,-0.06930791,-0.03954038,0.0375319
 4,0.12591806,0.00915868,0.00362197,-0.00025563,-0.21810442,-0.14502747
 ,0.00822633,-0.01566558,-0.01931249,0.00081926,-0.00332427,0.00279052,
 0.00100917,-0.00077831,0.00067628,0.00000558,0.00048028,0.00243414,0.0
 0046154,0.00026138,0.00136490,-0.00025109,-0.00110759,-0.00176385,0.00
 009429,-0.00019655,0.00091596,0.00002906,0.00038995,-0.00021491,-0.000
 04442,0.22927832,-0.02339001,-0.01566772,0.00104577,-0.14341029,-0.187
 35671,0.00525619,0.00936181,0.01112387,-0.00048402,0.00268587,-0.00004
 039,-0.00055049,0.00102339,-0.00014503,-0.00004309,0.00274365,-0.00491
 115,-0.00064959,-0.00333097,-0.00268309,0.00030924,0.00047620,0.000878
 35,-0.00004379,0.00024065,-0.00017754,-0.00001295,-0.00011122,0.000094
 45,0.00001491,0.15427701,0.19548336,-0.00143549,-0.00115718,0.00416029
 ,0.00829691,0.00538646,-0.04015077,0.00207124,0.00185678,0.00461818,0.
 00100465,-0.00055878,0.00743936,0.00002112,-0.00001495,-0.00107401,0.0
 0047476,-0.00062442,0.00476631,-0.00045514,-0.00007408,-0.00350892,0.0
 0019213,0.00013910,0.00098228,-0.00000038,-0.00006816,-0.00033345,-0.0
 0003998,0.00002338,-0.00003496,-0.00974872,-0.00524455,0.02784212,-0.0
 0492693,0.00071224,0.00109111,-0.00085285,0.02926148,0.00161475,-0.074
 62815,0.06613330,0.00599684,0.01087654,-0.02241910,-0.00148976,-0.0027
 9167,-0.00251257,0.00058793,-0.00142821,-0.00039744,0.00004077,0.00092
 306,0.00139826,0.00003171,0.00194622,0.00268439,-0.00031494,-0.0000028
 2,-0.00071334,-0.00005692,0.00012949,-0.00119387,-0.00008089,0.0011354
 3,-0.00059453,-0.00051155,0.07090142,0.00116539,0.00207447,-0.00035625
 ,0.00049641,-0.00294366,-0.00031218,0.06595507,-0.33257695,-0.01831139
 ,0.00849180,-0.01663882,-0.00162166,-0.00292443,-0.00029722,-0.0000256
 0,-0.00095672,0.00032972,0.00012367,-0.00043895,-0.00012441,0.00000592
 ,0.00070834,0.00176195,0.00016537,-0.00039162,-0.00093500,0.00000503,0
 .00020671,-0.00073880,-0.00003942,0.00017879,0.00057080,0.00022045,-0.
 07257596,0.34960210,0.00111051,-0.00031968,0.00795299,0.00035836,-0.00
 265980,0.00312730,0.00598914,-0.01832589,-0.03782446,-0.00013961,0.000
 90127,0.00467068,0.00057009,-0.00005932,0.00570842,0.00001644,0.000078
 12,-0.00071424,-0.00004860,-0.00014389,0.00055808,-0.00040144,0.000004
 12,-0.00331686,-0.00004285,0.00003136,-0.00031374,-0.00001969,0.000074
 90,-0.00021763,-0.00047783,0.00028368,-0.00476284,-0.00692603,0.020104
 84,0.02631714,0.01068229,-0.02052028,-0.00145742,-0.00319306,-0.003510
 64,0.00066359,-0.00141640,-0.00022303,0.00000430,-0.00382064,0.0000567
 3,0.00093526,-0.00122083,0.02896236,0.00175914,-0.07569593,0.06998715,
 0.00599293,0.00171840,-0.00240752,-0.00062115,-0.00195420,0.00135792,0
 .00018962,0.00055126,0.00089667,-0.00002272,0.00189638,-0.00070270,-0.
 00048260,0.00051130,-0.00121153,-0.00005112,0.00008957,0.00007419,-0.0
 0009695,0.07578299,0.00715626,-0.01639956,-0.00146672,-0.00410200,-0.0
 0048439,0.00001595,0.00015777,0.00053698,0.00006498,0.00018460,0.00134
 349,-0.00028873,0.00056592,-0.00217401,-0.00035191,0.06649091,-0.33074
 388,-0.01813955,0.00085776,-0.00202121,0.00004339,0.00026567,0.0001252
 4,-0.00000064,0.00006943,-0.00043797,-0.00001574,-0.00009889,0.0007813
 0,0.00020117,0.00045588,-0.00082496,-0.00009653,0.00007202,-0.00007467
 ,0.00004056,-0.07480763,0.34853251,-0.00024986,0.00079106,0.00386638,0
 .00063777,-0.00003195,0.00676258,0.00002133,0.00009602,-0.00124215,0.0
 0094062,-0.00027853,0.00751800,0.00051797,-0.00266973,0.00466983,0.005
 84147,-0.01842342,-0.04101464,-0.00047779,0.00030920,-0.00455610,0.000
 14209,-0.00008987,-0.00037190,-0.00005894,-0.00008325,-0.00020598,-0.0
 0045613,0.00025055,-0.00359219,0.00002170,0.00003959,0.00053297,-0.000
 09701,0.00004038,-0.00112823,-0.00732476,0.02019116,0.02755873,-0.0533
 5130,-0.03342649,0.00464454,0.00011278,-0.00629681,-0.00025716,-0.0011
 7439,-0.00052203,0.00002755,0.00227496,-0.00245456,-0.00028474,-0.0043
 8761,0.00080166,0.00024503,-0.00093443,0.00903055,0.00071198,-0.491163
 20,-0.30496128,0.02002301,-0.00419569,-0.00044474,0.00031734,-0.000622
 74,0.00160951,0.00013438,0.00059397,0.00080558,-0.00005633,-0.00207774
 ,0.00079478,0.00017352,-0.00028526,0.00018508,0.00003411,0.00029333,-0
 .00003387,0.00003165,0.53199489,-0.01535309,0.01057938,0.00076446,0.00
 376763,-0.00728602,-0.00063855,-0.00203738,0.00178314,0.00026893,0.001
 56650,0.00036299,-0.00011645,0.00002424,0.00138012,0.00013842,0.002010
 14,0.00044659,-0.00027414,-0.31339286,-0.37369973,0.01269116,-0.001229
 14,0.00041026,0.00012130,0.00039622,0.00044695,-0.00001998,0.00020363,
 -0.00003814,0.00000482,0.00083891,0.00250258,0.00005698,-0.00025729,0.
 00003906,0.00002114,0.00106181,0.00066082,-0.00008863,0.38077117,0.458
 98118,0.00544651,0.00223522,0.02131836,0.00018232,0.00017927,0.0003151
 2,-0.00003955,0.00014525,-0.00054822,-0.00010820,0.00021180,0.00011946
 ,0.00020934,0.00007402,-0.00184235,0.00040412,-0.00084434,0.00289251,0
 .01964502,0.01200216,-0.08207452,0.00028232,0.00005741,-0.00009178,0.0
 0008139,-0.00011896,0.00015168,-0.00008293,-0.00004404,-0.00052460,0.0
 0017568,0.00006100,-0.00038483,0.00001473,-0.00001487,0.00003302,0.000
 08008,0.00000080,0.00069881,-0.02383922,-0.01241650,0.03573106,-0.0122
 3776,0.04428815,0.00390017,-0.00618728,-0.00332888,0.00048333,-0.00173
 218,0.00222542,0.00021094,0.00171854,0.00062231,-0.00010899,0.00101179
 ,0.00112680,-0.00009895,-0.00426047,0.00180292,0.00047471,-0.13805253,
 0.05016597,0.00805381,-0.00213760,-0.00000522,0.00017533,-0.00013300,0
 .00045100,0.00003502,-0.00002541,0.00011410,0.00000864,0.00008567,0.00
 029331,0.00001303,-0.00069264,0.00015158,0.00004694,-0.00378648,0.0021
 3347,0.00042396,0.02500284,-0.04998395,-0.00179312,0.63959866,0.016946
 07,-0.02064328,-0.00279830,0.00148079,0.00313163,-0.00004988,0.0017327
 1,0.00043598,-0.00010762,-0.00230835,0.00029111,0.00019896,0.00173655,
 -0.00023837,-0.00011725,-0.00253398,-0.00457273,-0.00002009,0.02161453
 ,-0.26114354,-0.01025685,0.00305929,0.00106481,-0.00020379,0.00036455,
 -0.00149050,-0.00009724,-0.00052569,-0.00023454,0.00003183,-0.00119200
 ,0.00122774,0.00014693,0.00029866,-0.00008124,-0.00001926,0.00132928,0
 .00083881,-0.00008349,-0.03872662,-0.10167205,-0.00257754,-0.07030606,
 0.43341659,0.00271646,-0.00503247,0.01152812,0.00069203,0.00034146,0.0
 0147626,0.00018872,-0.00014710,-0.00036589,-0.00023634,-0.00004043,0.0
 0006842,-0.00007267,-0.00006735,-0.00079827,0.00028551,-0.00037197,0.0
 0055994,0.00681088,-0.01257213,-0.06704480,0.00030840,0.00004619,-0.00
 001064,0.00003111,-0.00010402,0.00004767,-0.00001922,-0.00002030,0.000
 02004,-0.00005148,0.00002552,0.00009523,0.00005317,-0.00000722,-0.0002
 0336,0.00038858,-0.00014932,0.00023474,-0.00130418,-0.00166533,0.02977
 375,-0.05202314,0.02293953,0.04333585,0.00239358,0.00044101,0.00016347
 ,-0.00038386,0.00001373,0.00008673,0.00038849,0.00023304,-0.00004687,-
 0.00029348,-0.00003063,0.00002830,0.00000605,-0.00011071,0.00000833,0.
 00045443,-0.00020850,-0.00006491,-0.01312780,0.01457216,0.00203248,0.0
 0035885,-0.00000214,-0.00003466,0.00001817,-0.00007000,-0.00000255,0.0
 0000522,-0.00002668,-0.00000547,-0.00001311,0.00011706,0.00002033,-0.0
 0001730,-0.00001811,-0.00000682,0.00002732,0.00005521,-0.00001354,-0.0
 0193907,-0.00845252,-0.00067986,-0.49807741,0.06682075,0.04221912,0.51
 020002,-0.00142068,-0.00667733,-0.00035634,0.00153860,0.00012680,-0.00
 014945,-0.00009041,-0.00057708,-0.00000437,0.00003815,-0.00019663,-0.0
 0001473,-0.00002644,0.00051110,0.00001713,-0.00096200,-0.00013098,0.00
 008277,0.06111902,-0.01162371,-0.00565652,-0.00035457,-0.00000387,0.00
 003160,-0.00006844,0.00009332,0.00000860,0.00004444,0.00005265,0.00000
 075,0.00007458,-0.00015781,-0.00002051,0.00012234,-0.00001076,-0.00000
 646,0.00015005,0.00056353,0.00001975,-0.00710676,0.00507730,0.00104985
 ,0.02030435,-0.05041942,-0.00318547,-0.07334281,0.06337387,0.00008596,
 -0.00050943,0.00415215,0.00015303,-0.00002510,0.00066189,-0.00006082,-
 0.00003036,-0.00030803,0.00003125,-0.00000924,0.00006718,0.00001194,0.
 00002390,0.00016802,-0.00009730,0.00002129,-0.00022134,0.00404974,-0.0
 0186414,0.00360462,-0.00004989,0.00000284,-0.00006082,-0.00000247,0.00
 000867,0.00002517,-0.00000240,0.00000657,-0.00004758,0.00001854,-0.000
 02401,0.00017156,-0.00000077,0.00000501,-0.00009152,-0.00000947,0.0000
 2735,-0.00016717,-0.00061884,0.00116035,-0.00565108,0.04019679,-0.0069
 7476,-0.01867034,-0.04370725,0.00818333,0.01633331,-0.00017976,0.00051
 397,-0.00001521,0.00032976,-0.00037601,-0.00005124,-0.00067163,0.00004
 593,0.00020629,0.00251282,-0.00125129,-0.00005965,-0.00084343,0.001670
 99,0.00070655,-0.00037121,-0.00043168,0.00007711,0.00011082,-0.0000399
 0,-0.00003332,-0.01029468,-0.00174604,0.00055121,-0.36348009,0.0013802
 2,0.02699164,-0.00518789,-0.00515740,0.00065210,-0.00003479,0.00001191
 ,-0.00002837,-0.00000161,-0.00001458,0.00000618,-0.00002605,0.00002909
 ,0.00002807,-0.00007295,-0.00001691,0.00001394,-0.00003407,0.00004134,
 0.00000481,0.00000240,-0.00000477,0.00000035,0.37840094,0.00039698,0.0
 0001913,-0.00000358,0.00004173,-0.00078749,-0.00003358,-0.00182512,0.0
 0097373,0.00011154,0.00089957,-0.00636742,-0.00045851,0.00353983,-0.00
 386604,-0.00076000,0.00025472,0.00139446,0.00000500,0.00006462,0.00009
 430,0.00001088,-0.03781747,-0.00286270,0.00307556,0.01242048,-0.055919
 40,-0.00199122,0.01807705,0.01076436,-0.00124816,-0.00011030,0.0000769
 8,0.00002934,0.00006127,0.00002973,-0.00000728,-0.00007114,-0.00000301
 ,-0.00000753,0.00007260,0.00003089,-0.00000922,-0.00000618,0.00002823,
 0.00000161,0.00000164,0.00000500,-0.00000031,0.00489987,0.05631295,-0.
 00002038,-0.00001321,-0.00064027,-0.00003308,0.00000061,-0.00009421,0.
 00012466,-0.00004112,0.00181888,0.00003399,-0.00028303,0.00243600,0.00
 078805,-0.00060757,0.00682750,0.00010715,0.00006101,0.00079805,-0.0000
 2871,0.00001943,-0.00027296,-0.00102388,0.00013142,-0.00251674,0.02747
 341,-0.00108995,-0.03583690,0.00166734,0.00064818,0.00545479,-0.000033
 70,0.00001937,-0.00038509,0.00000950,-0.00000109,0.00008113,0.00002370
 ,-0.00001572,0.00029971,0.00001781,-0.00000194,0.00010564,0.00000274,-
 0.00000225,0.00000263,0.00000062,0.00000021,0.00000909,-0.02880602,0.0
 0106051,0.02527463,-0.00019830,-0.00007060,0.00000195,-0.00005817,0.00
 019463,0.00000487,0.00131505,-0.00122741,-0.00013640,-0.00716419,-0.00
 181932,0.00078750,0.00437680,-0.02418118,-0.00146690,0.00172200,0.0006
 9896,-0.00020099,0.00012832,-0.00026003,-0.00001563,-0.00091870,0.0062
 4630,0.00109514,0.01087950,0.01840152,-0.00013596,-0.06641280,-0.05776
 741,0.00047645,0.00000136,0.00002291,0.00000308,-0.00037431,-0.0002929
 8,0.00002807,-0.00043925,0.00054840,0.00007138,-0.00006838,0.00008290,
 0.00000741,-0.00006066,0.00016817,0.00000825,-0.00000250,-0.00001465,0
 .00000161,-0.00015858,-0.00090013,-0.00030320,0.05743282,-0.00026360,-
 0.00023906,0.00001702,-0.00009240,0.00021745,0.00002157,0.00028914,-0.
 00027469,-0.00004876,-0.00004917,-0.00057568,-0.00017219,0.00202089,-0
 .00210856,-0.00022837,0.00002105,0.00038530,0.00006381,0.00013976,-0.0
 0008258,-0.00001828,0.00119757,-0.00082235,-0.00053366,-0.00909017,-0.
 01046059,0.00031280,-0.05413944,-0.35365161,-0.00973355,-0.00000791,0.
 00000628,-0.00000025,-0.00007985,0.00001368,0.00000159,-0.00042171,-0.
 00021904,0.00001869,-0.00009775,-0.00000531,0.00000868,-0.00004908,0.0
 0006076,0.00000878,0.00000750,-0.00000600,-0.00000196,0.00044525,0.000
 07628,0.00011515,0.06016991,0.36768572,-0.00000646,0.00000128,-0.00013
 591,-0.00000770,-0.00000190,-0.00010231,-0.00007015,0.00007504,0.00030
 968,0.00086482,-0.00002768,0.00338657,-0.00032250,0.00191005,-0.000546
 31,-0.00023061,0.00000849,-0.00109531,0.00000179,0.00001432,0.00007573
 ,0.00087470,-0.00094546,0.00904272,-0.00133673,-0.00193157,-0.00060722
 ,0.00063493,-0.00943710,-0.03012440,0.00000174,-0.00000277,0.00002657,
 0.00003737,0.00001900,0.00012411,0.00002898,-0.00006048,0.00013661,-0.
 00000046,-0.00000603,-0.00002202,-0.00000120,-0.00000892,-0.00004935,0
 .00000257,-0.00000016,0.00002489,-0.00024445,0.00022495,-0.00336189,-0
 .00022663,0.01016895,0.02291784\\0.00002761,-0.00002728,-0.00002763,-0
 .00009648,0.00000732,0.00000577,0.00004565,-0.00008959,-0.00000680,-0.
 00016484,0.00013859,0.00001992,-0.00006890,-0.00005479,0.00000346,-0.0
 0003892,0.00002241,0.00000090,0.00001058,-0.00006282,0.00008160,0.0000
 8183,-0.00014348,-0.00001165,0.00009502,0.00018051,-0.00000228,0.00007
 278,0.00003097,-0.00000200,0.00001156,0.00000010,-0.00000108,-0.000027
 80,0.00003911,0.00000449,-0.00000332,-0.00001299,-0.00000049,0.0000191
 5,-0.00002140,-0.00003532,0.00008824,0.00004574,-0.00003037,-0.0000554
 7,0.00003041,0.00000536,-0.00000812,-0.00002099,-0.00000049,0.00001143
 ,-0.00006179,-0.00000338\\\@
 The archive entry for this job was punched.


 BLESSED ARE THOSE WHO NOUGHT EXPECT,
 FOR THEY SHALL NOT BE DISAPPOINTED..  WALCOT - ODE TO PITT
 Job cpu time:       0 days 19 hours 41 minutes  9.9 seconds.
 Elapsed time:       0 days  0 hours 59 minutes  4.7 seconds.
 File lengths (MBytes):  RWF=    581 Int=      0 D2E=      0 Chk=     38 Scr=      1
 Normal termination of Gaussian 16 at Thu Apr 27 15:21:54 2023.
