 Entering Gaussian System, Link 0=g16
 Initial command:
 /usr/local/gaussian16c01/g16/l1.exe "/scr/akj/Gau-45596.inp" -scrdir="/scr/akj/"
 Entering Link 1 = /usr/local/gaussian16c01/g16/l1.exe PID=     45597.
  
 Copyright (c) 1988-2019, Gaussian, Inc.  All Rights Reserved.
  
 This is part of the Gaussian(R) 16 program.  It is based on
 the Gaussian(R) 09 system (copyright 2009, Gaussian, Inc.),
 the Gaussian(R) 03 system (copyright 2003, Gaussian, Inc.),
 the Gaussian(R) 98 system (copyright 1998, Gaussian, Inc.),
 the Gaussian(R) 94 system (copyright 1995, Gaussian, Inc.),
 the Gaussian 92(TM) system (copyright 1992, Gaussian, Inc.),
 the Gaussian 90(TM) system (copyright 1990, Gaussian, Inc.),
 the Gaussian 88(TM) system (copyright 1988, Gaussian, Inc.),
 the Gaussian 86(TM) system (copyright 1986, Carnegie Mellon
 University), and the Gaussian 82(TM) system (copyright 1983,
 Carnegie Mellon University). Gaussian is a federally registered
 trademark of Gaussian, Inc.
  
 This software contains proprietary and confidential information,
 including trade secrets, belonging to Gaussian, Inc.
  
 This software is provided under written license and may be
 used, copied, transmitted, or stored only in accord with that
 written license.
  
 The following legend is applicable only to US Government
 contracts under FAR:
  
                    RESTRICTED RIGHTS LEGEND
  
 Use, reproduction and disclosure by the US Government is
 subject to restrictions as set forth in subparagraphs (a)
 and (c) of the Commercial Computer Software - Restricted
 Rights clause in FAR 52.227-19.
  
 Gaussian, Inc.
 340 Quinnipiac St., Bldg. 40, Wallingford CT 06492
  
  
 ---------------------------------------------------------------
 Warning -- This program may not be used in any manner that
 competes with the business of Gaussian, Inc. or will provide
 assistance to any competitor of Gaussian, Inc.  The licensee
 of this program is prohibited from giving any competitor of
 Gaussian, Inc. access to this program.  By using this program,
 the user acknowledges that Gaussian, Inc. is engaged in the
 business of creating and licensing software in the field of
 computational chemistry and represents and warrants to the
 licensee that it is not a competitor of Gaussian, Inc. and that
 it will not use this program in any manner prohibited above.
 ---------------------------------------------------------------
  

 Cite this work as:
 Gaussian 16, Revision C.01,
 M. J. Frisch, G. W. Trucks, H. B. Schlegel, G. E. Scuseria, 
 M. A. Robb, J. R. Cheeseman, G. Scalmani, V. Barone, 
 G. A. Petersson, H. Nakatsuji, X. Li, M. Caricato, A. V. Marenich, 
 J. Bloino, B. G. Janesko, R. Gomperts, B. Mennucci, H. P. Hratchian, 
 J. V. Ortiz, A. F. Izmaylov, J. L. Sonnenberg, D. Williams-Young, 
 F. Ding, F. Lipparini, F. Egidi, J. Goings, B. Peng, A. Petrone, 
 T. Henderson, D. Ranasinghe, V. G. Zakrzewski, J. Gao, N. Rega, 
 G. Zheng, W. Liang, M. Hada, M. Ehara, K. Toyota, R. Fukuda, 
 J. Hasegawa, M. Ishida, T. Nakajima, Y. Honda, O. Kitao, H. Nakai, 
 T. Vreven, K. Throssell, J. A. Montgomery, Jr., J. E. Peralta, 
 F. Ogliaro, M. J. Bearpark, J. J. Heyd, E. N. Brothers, K. N. Kudin, 
 V. N. Staroverov, T. A. Keith, R. Kobayashi, J. Normand, 
 K. Raghavachari, A. P. Rendell, J. C. Burant, S. S. Iyengar, 
 J. Tomasi, M. Cossi, J. M. Millam, M. Klene, C. Adamo, R. Cammi, 
 J. W. Ochterski, R. L. Martin, K. Morokuma, O. Farkas, 
 J. B. Foresman, and D. J. Fox, Gaussian, Inc., Wallingford CT, 2019.
 
 ******************************************
 Gaussian 16:  ES64L-G16RevC.01  3-Jul-2019
                27-Apr-2023 
 ******************************************
 %nprocshared=20
 Will use up to   20 processors via shared memory.
 %mem=10000MW
 %chk=CYH-205-A_eq00000.chk
 ------------------------------------
 # opt freq M062x/aug-cc-pvtz pop=nbo
 ------------------------------------
 1/18=20,19=15,26=3,38=1/1,3;
 2/9=110,12=2,17=6,18=5,40=1/2;
 3/5=16,6=1,7=10,11=2,25=1,30=1,71=1,74=-55/1,2,3;
 4//1;
 5/5=2,38=5/2;
 6/7=2,8=2,9=2,10=2,28=1,40=1/1,7;
 7//1,2,3,16;
 1/18=20,19=15,26=3/3(2);
 2/9=110/2;
 99//99;
 2/9=110/2;
 3/5=16,6=1,7=10,11=2,25=1,30=1,71=1,74=-55/1,2,3;
 4/5=5,16=3,69=1/1;
 5/5=2,38=5/2;
 7//1,2,3,16;
 1/18=20,19=15,26=3/3(-5);
 2/9=110/2;
 6/7=2,8=2,9=2,10=2,19=2,28=1,40=1/1,7;
 99/9=1/99;
 -----------------
 CYH-205-A_eq00000
 -----------------
 Symbolic Z-matrix:
 Charge =  0 Multiplicity = 1
 C                    -1.05233   0.11371  -0.09125 
 C                    -0.47272  -1.15072  -0.00647 
 C                     0.89822  -1.27427   0.08974 
 C                     1.69802  -0.12975   0.1016 
 C                     1.11982   1.1387    0.01677 
 C                    -0.2507    1.2547   -0.07914 
 C                    -2.521     0.28966  -0.19589 
 O                    -3.07444   1.35723  -0.27173 
 O                    -3.19556  -0.86866  -0.1989 
 C                     3.10408  -0.25721   0.20032 
 N                     4.2424   -0.36208   0.28029 
 H                    -1.10164  -2.02678  -0.01667 
 H                     1.36022  -2.24808   0.15608 
 H                     1.75012   2.0153    0.02704 
 H                    -0.72569   2.22162  -0.1461 
 H                    -4.1473   -0.69499  -0.26888 
 

 GradGradGradGradGradGradGradGradGradGradGradGradGradGradGradGradGradGrad
 Berny optimization.
 Initialization pass.
                           ----------------------------
                           !    Initial Parameters    !
                           ! (Angstroms and Degrees)  !
 --------------------------                            --------------------------
 ! Name  Definition              Value          Derivative Info.                !
 --------------------------------------------------------------------------------
 ! R1    R(1,2)                  1.3935         estimate D2E/DX2                !
 ! R2    R(1,6)                  1.3945         estimate D2E/DX2                !
 ! R3    R(1,7)                  1.4829         estimate D2E/DX2                !
 ! R4    R(2,3)                  1.3799         estimate D2E/DX2                !
 ! R5    R(2,12)                 1.0785         estimate D2E/DX2                !
 ! R6    R(3,4)                  1.3963         estimate D2E/DX2                !
 ! R7    R(3,13)                 1.0799         estimate D2E/DX2                !
 ! R8    R(4,5)                  1.3966         estimate D2E/DX2                !
 ! R9    R(4,10)                 1.4153         estimate D2E/DX2                !
 ! R10   R(5,6)                  1.3788         estimate D2E/DX2                !
 ! R11   R(5,14)                 1.0797         estimate D2E/DX2                !
 ! R12   R(6,15)                 1.0794         estimate D2E/DX2                !
 ! R13   R(7,8)                  1.2049         estimate D2E/DX2                !
 ! R14   R(7,9)                  1.3404         estimate D2E/DX2                !
 ! R15   R(9,16)                 0.97           estimate D2E/DX2                !
 ! R16   R(10,11)                1.1459         estimate D2E/DX2                !
 ! A1    A(2,1,6)              120.184          estimate D2E/DX2                !
 ! A2    A(2,1,7)              121.5945         estimate D2E/DX2                !
 ! A3    A(6,1,7)              118.2216         estimate D2E/DX2                !
 ! A4    A(1,2,3)              119.9164         estimate D2E/DX2                !
 ! A5    A(1,2,12)             119.5989         estimate D2E/DX2                !
 ! A6    A(3,2,12)             120.4847         estimate D2E/DX2                !
 ! A7    A(2,3,4)              119.754          estimate D2E/DX2                !
 ! A8    A(2,3,13)             120.6699         estimate D2E/DX2                !
 ! A9    A(4,3,13)             119.576          estimate D2E/DX2                !
 ! A10   A(3,4,5)              120.4516         estimate D2E/DX2                !
 ! A11   A(3,4,10)             119.724          estimate D2E/DX2                !
 ! A12   A(5,4,10)             119.8245         estimate D2E/DX2                !
 ! A13   A(4,5,6)              119.483          estimate D2E/DX2                !
 ! A14   A(4,5,14)             119.678          estimate D2E/DX2                !
 ! A15   A(6,5,14)             120.839          estimate D2E/DX2                !
 ! A16   A(1,6,5)              120.2111         estimate D2E/DX2                !
 ! A17   A(1,6,15)             118.6499         estimate D2E/DX2                !
 ! A18   A(5,6,15)             121.139          estimate D2E/DX2                !
 ! A19   A(1,7,8)              124.3676         estimate D2E/DX2                !
 ! A20   A(1,7,9)              113.3316         estimate D2E/DX2                !
 ! A21   A(8,7,9)              122.3008         estimate D2E/DX2                !
 ! A22   A(7,9,16)             109.8293         estimate D2E/DX2                !
 ! A23   L(4,10,11,13,-1)      179.9168         estimate D2E/DX2                !
 ! A24   L(4,10,11,13,-2)      179.9999         estimate D2E/DX2                !
 ! D1    D(6,1,2,3)              0.0003         estimate D2E/DX2                !
 ! D2    D(6,1,2,12)          -179.9999         estimate D2E/DX2                !
 ! D3    D(7,1,2,3)           -179.9994         estimate D2E/DX2                !
 ! D4    D(7,1,2,12)             0.0004         estimate D2E/DX2                !
 ! D5    D(2,1,6,5)             -0.0003         estimate D2E/DX2                !
 ! D6    D(2,1,6,15)           179.9999         estimate D2E/DX2                !
 ! D7    D(7,1,6,5)            179.9995         estimate D2E/DX2                !
 ! D8    D(7,1,6,15)            -0.0004         estimate D2E/DX2                !
 ! D9    D(2,1,7,8)            179.9983         estimate D2E/DX2                !
 ! D10   D(2,1,7,9)             -0.0017         estimate D2E/DX2                !
 ! D11   D(6,1,7,8)             -0.0015         estimate D2E/DX2                !
 ! D12   D(6,1,7,9)            179.9985         estimate D2E/DX2                !
 ! D13   D(1,2,3,4)              0.0            estimate D2E/DX2                !
 ! D14   D(1,2,3,13)           179.9998         estimate D2E/DX2                !
 ! D15   D(12,2,3,4)          -179.9998         estimate D2E/DX2                !
 ! D16   D(12,2,3,13)           -0.0001         estimate D2E/DX2                !
 ! D17   D(2,3,4,5)             -0.0004         estimate D2E/DX2                !
 ! D18   D(2,3,4,10)           179.9995         estimate D2E/DX2                !
 ! D19   D(13,3,4,5)           179.9999         estimate D2E/DX2                !
 ! D20   D(13,3,4,10)           -0.0002         estimate D2E/DX2                !
 ! D21   D(3,4,5,6)              0.0004         estimate D2E/DX2                !
 ! D22   D(3,4,5,14)          -179.9998         estimate D2E/DX2                !
 ! D23   D(10,4,5,6)          -179.9995         estimate D2E/DX2                !
 ! D24   D(10,4,5,14)            0.0003         estimate D2E/DX2                !
 ! D25   D(4,5,6,1)             -0.0001         estimate D2E/DX2                !
 ! D26   D(4,5,6,15)           179.9997         estimate D2E/DX2                !
 ! D27   D(14,5,6,1)          -179.9999         estimate D2E/DX2                !
 ! D28   D(14,5,6,15)            0.0            estimate D2E/DX2                !
 ! D29   D(1,7,9,16)           180.0            estimate D2E/DX2                !
 ! D30   D(8,7,9,16)             0.0            estimate D2E/DX2                !
 --------------------------------------------------------------------------------
 Trust Radius=3.00D-01 FncErr=1.00D-07 GrdErr=1.00D-06 EigMax=2.50D+02 EigMin=1.00D-04
 Number of steps in this run=     80 maximum allowed number of steps=    100.
 GradGradGradGradGradGradGradGradGradGradGradGradGradGradGradGradGradGrad

                          Input orientation:                          
 ---------------------------------------------------------------------
 Center     Atomic      Atomic             Coordinates (Angstroms)
 Number     Number       Type             X           Y           Z
 ---------------------------------------------------------------------
      1          6           0       -1.052331    0.113712   -0.091250
      2          6           0       -0.472716   -1.150716   -0.006471
      3          6           0        0.898222   -1.274271    0.089740
      4          6           0        1.698015   -0.129745    0.101604
      5          6           0        1.119824    1.138704    0.016765
      6          6           0       -0.250697    1.254702   -0.079141
      7          6           0       -2.521004    0.289656   -0.195891
      8          8           0       -3.074445    1.357233   -0.271727
      9          8           0       -3.195561   -0.868658   -0.198902
     10          6           0        3.104080   -0.257212    0.200316
     11          7           0        4.242396   -0.362076    0.280289
     12          1           0       -1.101643   -2.026785   -0.016668
     13          1           0        1.360224   -2.248079    0.156081
     14          1           0        1.750123    2.015301    0.027035
     15          1           0       -0.725688    2.221621   -0.146098
     16          1           0       -4.147300   -0.694987   -0.268881
 ---------------------------------------------------------------------
                    Distance matrix (angstroms):
                    1          2          3          4          5
     1  C    0.000000
     2  C    1.393527   0.000000
     3  C    2.400815   1.379853   0.000000
     4  C    2.767827   2.401278   1.396334   0.000000
     5  C    2.404274   2.788937   2.424228   1.396591   0.000000
     6  C    1.394497   2.416735   2.782847   2.397257   1.378761
     7  C    1.482871   2.511182   3.770751   4.250238   3.744561
     8  O    2.380727   3.623419   4.778866   5.012670   4.209855
     9  O    2.360101   2.744171   4.123942   4.958164   4.764302
    10  C    4.183103   3.692503   2.431552   1.415277   2.433011
    11  N    5.329028   4.789202   3.471585   2.561206   3.474513
    12  H    2.142363   1.078495   2.139407   3.383908   3.867345
    13  H    3.385210   2.142498   1.079884   2.145789   3.398162
    14  H    3.388772   3.868565   3.398669   2.146974   1.079723
    15  H    2.133772   3.384693   3.861860   3.385944   2.145961
    16  H    3.203807   3.712023   5.091313   5.884256   5.584498
                    6          7          8          9         10
     6  C    0.000000
     7  C    2.469664   0.000000
     8  O    2.832165   1.204894   0.000000
     9  O    3.632524   1.340421   2.230373   0.000000
    10  C    3.690326   5.665476   6.403392   6.341823   0.000000
    11  N    4.788637   6.811393   7.536372   7.470573   1.145930
    12  H    3.390600   2.722610   3.925376   2.399783   4.567995
    13  H    3.862625   4.650582   5.731281   4.773258   2.646987
    14  H    2.143143   4.611948   4.878398   5.729577   2.650951
    15  H    1.079367   2.637826   2.505915   3.956373   4.575122
    16  H    4.361285   1.902548   2.315737   0.969982   7.279719
                   11         12         13         14         15
    11  N    0.000000
    12  H    5.605193   0.000000
    13  H    3.446643   2.477822   0.000000
    14  H    3.453619   4.947013   4.283116   0.000000
    15  H    5.615973   4.266972   4.941716   2.490418   0.000000
    16  H    8.414238   3.333664   5.738075   6.497139   4.497679
                   16
    16  H    0.000000
 Stoichiometry    C8H5NO2
 Framework group  C1[X(C8H5NO2)]
 Deg. of freedom    42
 Full point group                 C1      NOp   1
 Largest Abelian subgroup         C1      NOp   1
 Largest concise Abelian subgroup C1      NOp   1
                         Standard orientation:                         
 ---------------------------------------------------------------------
 Center     Atomic      Atomic             Coordinates (Angstroms)
 Number     Number       Type             X           Y           Z
 ---------------------------------------------------------------------
      1          6           0        0.952254    0.036408    0.000006
      2          6           0        0.276542   -1.182334    0.000000
      3          6           0       -1.103136   -1.204270   -0.000001
      4          6           0       -1.815290   -0.003193    0.000004
      5          6           0       -1.140694    1.219667    0.000018
      6          6           0        0.237991    1.234094    0.000018
      7          6           0        2.433611    0.103391   -0.000006
      8          8           0        3.068155    1.127658   -0.000031
      9          8           0        3.019542   -1.102186    0.000015
     10          6           0       -3.230376   -0.026436   -0.000007
     11          7           0       -4.376123   -0.046919   -0.000014
     12          1           0        0.838378   -2.102927   -0.000007
     13          1           0       -1.639140   -2.141739   -0.000010
     14          1           0       -1.703860    2.140888    0.000025
     15          1           0        0.786453    2.163729    0.000024
     16          1           0        3.984048   -0.999259    0.000006
 ---------------------------------------------------------------------
 Rotational constants (GHZ):           3.8979319           0.5835427           0.5075583
 Standard basis: Aug-CC-pVTZ (5D, 7F)
 There are   730 symmetry adapted cartesian basis functions of A   symmetry.
 There are   621 symmetry adapted basis functions of A   symmetry.
   621 basis functions,   927 primitive gaussians,   730 cartesian basis functions
    38 alpha electrons       38 beta electrons
       nuclear repulsion energy       524.3844060621 Hartrees.
 NAtoms=   16 NActive=   16 NUniq=   16 SFac= 1.00D+00 NAtFMM=   60 NAOKFM=F Big=F
 Integral buffers will be    131072 words long.
 Raffenetti 2 integral format.
 Two-electron integral symmetry is turned on.
 One-electron integrals computed using PRISM.
 NBasis=   621 RedAO= T EigKep=  1.18D-06  NBF=   621
 NBsUse=   618 1.00D-06 EigRej=  9.43D-07 NBFU=   618
 ExpMin= 2.53D-02 ExpMax= 1.53D+04 ExpMxC= 5.22D+02 IAcc=3 IRadAn=         5 AccDes= 0.00D+00
 Harris functional with IExCor= 1009 and IRadAn=       5 diagonalized for initial guess.
 HarFok:  IExCor= 1009 AccDes= 0.00D+00 IRadAn=         5 IDoV= 1 UseB2=F ITyADJ=14
 ICtDFT=  3500011 ScaDFX=  1.000000  1.000000  1.000000  1.000000
 FoFCou: FMM=F IPFlag=           0 FMFlag=      100000 FMFlg1=           0
         NFxFlg=           0 DoJE=T BraDBF=F KetDBF=T FulRan=T
         wScrn=  0.000000 ICntrl=       500 IOpCl=  0 I1Cent=   200000004 NGrid=           0
         NMat0=    1 NMatS0=      1 NMatT0=    0 NMatD0=    1 NMtDS0=    0 NMtDT0=    0
 Petite list used in FoFCou.
 Requested convergence on RMS density matrix=1.00D-08 within 128 cycles.
 Requested convergence on MAX density matrix=1.00D-06.
 Requested convergence on             energy=1.00D-06.
 No special actions if energy rises.
 SCF Done:  E(RM062X) =  -513.064530187     A.U. after   14 cycles
            NFock= 14  Conv=0.66D-08     -V/T= 2.0050

 **********************************************************************

            Population analysis using the SCF Density.

 **********************************************************************

 Orbital symmetries:
       Occupied  (A) (A) (A) (A) (A) (A) (A) (A) (A) (A) (A) (A)
                 (A) (A) (A) (A) (A) (A) (A) (A) (A) (A) (A) (A)
                 (A) (A) (A) (A) (A) (A) (A) (A) (A) (A) (A) (A)
                 (A) (A)
       Virtual   (A) (A) (A) (A) (A) (A) (A) (A) (A) (A) (A) (A)
                 (A) (A) (A) (A) (A) (A) (A) (A) (A) (A) (A) (A)
                 (A) (A) (A) (A) (A) (A) (A) (A) (A) (A) (A) (A)
                 (A) (A) (A) (A) (A) (A) (A) (A) (A) (A) (A) (A)
                 (A) (A) (A) (A) (A) (A) (A) (A) (A) (A) (A) (A)
                 (A) (A) (A) (A) (A) (A) (A) (A) (A) (A) (A) (A)
                 (A) (A) (A) (A) (A) (A) (A) (A) (A) (A) (A) (A)
                 (A) (A) (A) (A) (A) (A) (A) (A) (A) (A) (A) (A)
                 (A) (A) (A) (A) (A) (A) (A) (A) (A) (A) (A) (A)
                 (A) (A) (A) (A) (A) (A) (A) (A) (A) (A) (A) (A)
                 (A) (A) (A) (A) (A) (A) (A) (A) (A) (A) (A) (A)
                 (A) (A) (A) (A) (A) (A) (A) (A) (A) (A) (A) (A)
                 (A) (A) (A) (A) (A) (A) (A) (A) (A) (A) (A) (A)
                 (A) (A) (A) (A) (A) (A) (A) (A) (A) (A) (A) (A)
                 (A) (A) (A) (A) (A) (A) (A) (A) (A) (A) (A) (A)
                 (A) (A) (A) (A) (A) (A) (A) (A) (A) (A) (A) (A)
                 (A) (A) (A) (A) (A) (A) (A) (A) (A) (A) (A) (A)
                 (A) (A) (A) (A) (A) (A) (A) (A) (A) (A) (A) (A)
                 (A) (A) (A) (A) (A) (A) (A) (A) (A) (A) (A) (A)
                 (A) (A) (A) (A) (A) (A) (A) (A) (A) (A) (A) (A)
                 (A) (A) (A) (A) (A) (A) (A) (A) (A) (A) (A) (A)
                 (A) (A) (A) (A) (A) (A) (A) (A) (A) (A) (A) (A)
                 (A) (A) (A) (A) (A) (A) (A) (A) (A) (A) (A) (A)
                 (A) (A) (A) (A) (A) (A) (A) (A) (A) (A) (A) (A)
                 (A) (A) (A) (A) (A) (A) (A) (A) (A) (A) (A) (A)
                 (A) (A) (A) (A) (A) (A) (A) (A) (A) (A) (A) (A)
                 (A) (A) (A) (A) (A) (A) (A) (A) (A) (A) (A) (A)
                 (A) (A) (A) (A) (A) (A) (A) (A) (A) (A) (A) (A)
                 (A) (A) (A) (A) (A) (A) (A) (A) (A) (A) (A) (A)
                 (A) (A) (A) (A) (A) (A) (A) (A) (A) (A) (A) (A)
                 (A) (A) (A) (A) (A) (A) (A) (A) (A) (A) (A) (A)
                 (A) (A) (A) (A) (A) (A) (A) (A) (A) (A) (A) (A)
                 (A) (A) (A) (A) (A) (A) (A) (A) (A) (A) (A) (A)
                 (A) (A) (A) (A) (A) (A) (A) (A) (A) (A) (A) (A)
                 (A) (A) (A) (A) (A) (A) (A) (A) (A) (A) (A) (A)
                 (A) (A) (A) (A) (A) (A) (A) (A) (A) (A) (A) (A)
                 (A) (A) (A) (A) (A) (A) (A) (A) (A) (A) (A) (A)
                 (A) (A) (A) (A) (A) (A) (A) (A) (A) (A) (A) (A)
                 (A) (A) (A) (A) (A) (A) (A) (A) (A) (A) (A) (A)
                 (A) (A) (A) (A) (A) (A) (A) (A) (A) (A) (A) (A)
                 (A) (A) (A) (A) (A) (A) (A) (A) (A) (A) (A) (A)
                 (A) (A) (A) (A) (A) (A) (A) (A) (A) (A) (A) (A)
                 (A) (A) (A) (A) (A) (A) (A) (A) (A) (A) (A) (A)
                 (A) (A) (A) (A) (A) (A) (A) (A) (A) (A) (A) (A)
                 (A) (A) (A) (A) (A) (A) (A) (A) (A) (A) (A) (A)
                 (A) (A) (A) (A) (A) (A) (A) (A) (A) (A) (A) (A)
                 (A) (A) (A) (A) (A) (A) (A) (A) (A) (A) (A) (A)
                 (A) (A) (A) (A) (A) (A) (A) (A) (A) (A) (A) (A)
                 (A) (A) (A) (A)
 The electronic state is 1-A.
 Alpha  occ. eigenvalues --  -19.69509 -19.63747 -14.76467 -10.70210 -10.61187
 Alpha  occ. eigenvalues --  -10.59319 -10.58804 -10.58777 -10.58723 -10.58440
 Alpha  occ. eigenvalues --  -10.58243  -1.26223  -1.16418  -1.03995  -1.00918
 Alpha  occ. eigenvalues --   -0.91774  -0.89085  -0.80368  -0.74134  -0.71696
 Alpha  occ. eigenvalues --   -0.66353  -0.62678  -0.60144  -0.56706  -0.56465
 Alpha  occ. eigenvalues --   -0.55130  -0.53191  -0.51357  -0.49986  -0.47944
 Alpha  occ. eigenvalues --   -0.45211  -0.45077  -0.43894  -0.42047  -0.41547
 Alpha  occ. eigenvalues --   -0.38305  -0.35165  -0.34136
 Alpha virt. eigenvalues --   -0.06545  -0.01660  -0.01502  -0.00190   0.00273
 Alpha virt. eigenvalues --    0.02094   0.02227   0.02491   0.03223   0.03437
 Alpha virt. eigenvalues --    0.05160   0.05270   0.05414   0.05491   0.06105
 Alpha virt. eigenvalues --    0.06586   0.07254   0.07746   0.07831   0.08239
 Alpha virt. eigenvalues --    0.08691   0.09061   0.09329   0.09455   0.09860
 Alpha virt. eigenvalues --    0.10333   0.10576   0.10961   0.11740   0.13099
 Alpha virt. eigenvalues --    0.13425   0.13816   0.13880   0.14558   0.14780
 Alpha virt. eigenvalues --    0.14981   0.15180   0.16377   0.17014   0.18210
 Alpha virt. eigenvalues --    0.18733   0.19039   0.19405   0.19702   0.19984
 Alpha virt. eigenvalues --    0.20054   0.20978   0.21334   0.21592   0.22291
 Alpha virt. eigenvalues --    0.22686   0.22973   0.23525   0.23810   0.23874
 Alpha virt. eigenvalues --    0.24721   0.25401   0.25724   0.26220   0.26640
 Alpha virt. eigenvalues --    0.27744   0.28960   0.29121   0.29761   0.29942
 Alpha virt. eigenvalues --    0.30010   0.30551   0.31340   0.32520   0.32581
 Alpha virt. eigenvalues --    0.32920   0.32991   0.33376   0.33381   0.33481
 Alpha virt. eigenvalues --    0.34911   0.35316   0.35534   0.35789   0.36300
 Alpha virt. eigenvalues --    0.37448   0.37752   0.38166   0.38413   0.38892
 Alpha virt. eigenvalues --    0.39267   0.39573   0.39878   0.40126   0.40523
 Alpha virt. eigenvalues --    0.41344   0.42146   0.43010   0.44045   0.44555
 Alpha virt. eigenvalues --    0.45284   0.45969   0.46179   0.46797   0.47128
 Alpha virt. eigenvalues --    0.47759   0.48110   0.48418   0.50397   0.51355
 Alpha virt. eigenvalues --    0.52104   0.52194   0.52667   0.53491   0.54421
 Alpha virt. eigenvalues --    0.55358   0.56239   0.56811   0.57199   0.57603
 Alpha virt. eigenvalues --    0.58375   0.59249   0.59262   0.60251   0.61036
 Alpha virt. eigenvalues --    0.61319   0.61958   0.62448   0.63356   0.63699
 Alpha virt. eigenvalues --    0.64803   0.65114   0.66478   0.66724   0.67972
 Alpha virt. eigenvalues --    0.68296   0.69742   0.70153   0.70298   0.70988
 Alpha virt. eigenvalues --    0.71955   0.72273   0.72668   0.73581   0.73908
 Alpha virt. eigenvalues --    0.74063   0.74778   0.75534   0.75635   0.76516
 Alpha virt. eigenvalues --    0.76976   0.77283   0.77626   0.78423   0.78500
 Alpha virt. eigenvalues --    0.78836   0.79806   0.80151   0.80892   0.81293
 Alpha virt. eigenvalues --    0.81710   0.82942   0.83557   0.84397   0.85609
 Alpha virt. eigenvalues --    0.86062   0.87079   0.87382   0.87864   0.88412
 Alpha virt. eigenvalues --    0.88969   0.90477   0.90670   0.91183   0.91313
 Alpha virt. eigenvalues --    0.91724   0.92598   0.93214   0.93643   0.94268
 Alpha virt. eigenvalues --    0.94651   0.94881   0.96085   0.96354   0.97339
 Alpha virt. eigenvalues --    0.97882   0.98565   0.98624   0.99880   1.00540
 Alpha virt. eigenvalues --    1.00889   1.01861   1.02998   1.03695   1.04446
 Alpha virt. eigenvalues --    1.04861   1.05053   1.05119   1.06447   1.06625
 Alpha virt. eigenvalues --    1.07760   1.08178   1.09028   1.09389   1.10008
 Alpha virt. eigenvalues --    1.10326   1.10592   1.10873   1.12503   1.13198
 Alpha virt. eigenvalues --    1.13881   1.16296   1.16715   1.17451   1.18255
 Alpha virt. eigenvalues --    1.19009   1.21129   1.21400   1.21493   1.22602
 Alpha virt. eigenvalues --    1.23255   1.24094   1.25062   1.26169   1.28052
 Alpha virt. eigenvalues --    1.28344   1.29728   1.30280   1.30877   1.33303
 Alpha virt. eigenvalues --    1.33458   1.33601   1.35509   1.35758   1.35811
 Alpha virt. eigenvalues --    1.38468   1.38709   1.38800   1.39523   1.40645
 Alpha virt. eigenvalues --    1.42458   1.44721   1.44853   1.45350   1.46339
 Alpha virt. eigenvalues --    1.47316   1.48370   1.48431   1.50004   1.50698
 Alpha virt. eigenvalues --    1.51454   1.52060   1.52471   1.52555   1.53622
 Alpha virt. eigenvalues --    1.58765   1.58782   1.59151   1.60203   1.60389
 Alpha virt. eigenvalues --    1.60463   1.62089   1.62885   1.64325   1.64669
 Alpha virt. eigenvalues --    1.65158   1.66282   1.66357   1.67724   1.68825
 Alpha virt. eigenvalues --    1.69366   1.70280   1.70889   1.72402   1.74389
 Alpha virt. eigenvalues --    1.74583   1.76069   1.76270   1.77374   1.78020
 Alpha virt. eigenvalues --    1.78179   1.78902   1.81807   1.82427   1.82539
 Alpha virt. eigenvalues --    1.85177   1.85409   1.86126   1.86603   1.88225
 Alpha virt. eigenvalues --    1.89325   1.89534   1.90408   1.92186   1.92877
 Alpha virt. eigenvalues --    1.93418   1.93770   1.95323   1.98317   1.98392
 Alpha virt. eigenvalues --    2.00837   2.01831   2.02284   2.03729   2.05111
 Alpha virt. eigenvalues --    2.07298   2.08855   2.09527   2.11071   2.11334
 Alpha virt. eigenvalues --    2.12977   2.14092   2.14577   2.14834   2.16736
 Alpha virt. eigenvalues --    2.18114   2.18192   2.19990   2.21012   2.22637
 Alpha virt. eigenvalues --    2.22714   2.25228   2.27195   2.27960   2.29131
 Alpha virt. eigenvalues --    2.30560   2.31072   2.32489   2.33425   2.34437
 Alpha virt. eigenvalues --    2.35433   2.37170   2.39074   2.39544   2.40769
 Alpha virt. eigenvalues --    2.42825   2.44570   2.48402   2.48501   2.48718
 Alpha virt. eigenvalues --    2.50949   2.53130   2.53343   2.54479   2.55141
 Alpha virt. eigenvalues --    2.57944   2.59576   2.62412   2.68813   2.69796
 Alpha virt. eigenvalues --    2.71519   2.74778   2.74993   2.76273   2.77314
 Alpha virt. eigenvalues --    2.80901   2.84348   2.85593   2.87006   2.90645
 Alpha virt. eigenvalues --    2.91303   2.91951   2.92102   2.93738   2.95029
 Alpha virt. eigenvalues --    2.95986   2.98196   2.98903   3.00003   3.03451
 Alpha virt. eigenvalues --    3.05373   3.06152   3.06546   3.07723   3.08500
 Alpha virt. eigenvalues --    3.10086   3.10319   3.12331   3.12927   3.14736
 Alpha virt. eigenvalues --    3.15396   3.16678   3.16724   3.20666   3.20989
 Alpha virt. eigenvalues --    3.21776   3.22453   3.22669   3.23580   3.26923
 Alpha virt. eigenvalues --    3.27285   3.27951   3.29280   3.30611   3.32843
 Alpha virt. eigenvalues --    3.33069   3.33556   3.35073   3.35338   3.37050
 Alpha virt. eigenvalues --    3.40260   3.41711   3.42362   3.44027   3.44361
 Alpha virt. eigenvalues --    3.45075   3.46963   3.48826   3.51045   3.51153
 Alpha virt. eigenvalues --    3.51882   3.53592   3.54579   3.55481   3.56707
 Alpha virt. eigenvalues --    3.56945   3.57869   3.59506   3.61152   3.61323
 Alpha virt. eigenvalues --    3.61809   3.62383   3.64673   3.65635   3.66919
 Alpha virt. eigenvalues --    3.68271   3.68741   3.69520   3.71566   3.73351
 Alpha virt. eigenvalues --    3.74437   3.75231   3.77537   3.78159   3.80610
 Alpha virt. eigenvalues --    3.84015   3.85312   3.86262   3.87526   3.88142
 Alpha virt. eigenvalues --    3.89497   3.89939   3.90578   3.91297   3.91919
 Alpha virt. eigenvalues --    3.92998   3.94771   3.95950   3.96738   3.97959
 Alpha virt. eigenvalues --    3.99742   4.01192   4.01584   4.03595   4.05890
 Alpha virt. eigenvalues --    4.06381   4.08206   4.08756   4.09472   4.10188
 Alpha virt. eigenvalues --    4.10476   4.13286   4.15461   4.18235   4.19200
 Alpha virt. eigenvalues --    4.20878   4.22301   4.24754   4.25077   4.26083
 Alpha virt. eigenvalues --    4.29658   4.31670   4.32617   4.33216   4.33669
 Alpha virt. eigenvalues --    4.37812   4.40885   4.42878   4.45558   4.47478
 Alpha virt. eigenvalues --    4.50571   4.51422   4.51623   4.53788   4.55523
 Alpha virt. eigenvalues --    4.55870   4.60828   4.61377   4.62736   4.63829
 Alpha virt. eigenvalues --    4.65255   4.66104   4.67290   4.67546   4.69590
 Alpha virt. eigenvalues --    4.70438   4.73662   4.74701   4.74723   4.76853
 Alpha virt. eigenvalues --    4.77439   4.78295   4.83532   4.87752   4.88492
 Alpha virt. eigenvalues --    4.89239   4.91257   4.94895   4.97050   5.00044
 Alpha virt. eigenvalues --    5.01754   5.02768   5.04615   5.05004   5.05577
 Alpha virt. eigenvalues --    5.08075   5.12665   5.19108   5.21743   5.23045
 Alpha virt. eigenvalues --    5.24011   5.29377   5.29515   5.35200   5.37611
 Alpha virt. eigenvalues --    5.38440   5.45568   5.47387   5.49081   5.52310
 Alpha virt. eigenvalues --    5.65694   5.66060   5.69124   5.75243   5.83512
 Alpha virt. eigenvalues --    5.85078   5.87201   5.90469   6.02602   6.05150
 Alpha virt. eigenvalues --    6.08622   6.10860   6.19836   6.20181   6.20294
 Alpha virt. eigenvalues --    6.28513   6.32731   6.35231   6.38169   6.40938
 Alpha virt. eigenvalues --    6.43978   6.48234   6.54232   6.54386   6.56649
 Alpha virt. eigenvalues --    6.69191   6.69643   6.74221   6.74530   6.80520
 Alpha virt. eigenvalues --    6.82301   6.82633   6.85947   6.91963   7.04327
 Alpha virt. eigenvalues --    7.05406   7.11251   7.13762   7.27959   7.34166
 Alpha virt. eigenvalues --    7.45894   7.57438   7.81226   8.04129  14.78817
 Alpha virt. eigenvalues --   15.00788  16.18230  16.30030  16.69708  17.78125
 Alpha virt. eigenvalues --   18.66135  19.19513  19.50247  19.81333  20.51467
          Condensed to atoms (all electrons):
               1          2          3          4          5          6
     1  C    7.248340  -1.044955   0.278878  -0.456283   0.369062  -1.080141
     2  C   -1.044955   7.881382  -0.632526   0.405435  -0.515751   0.546661
     3  C    0.278878  -0.632526   8.696113  -1.411645   0.670752  -0.545924
     4  C   -0.456283   0.405435  -1.411645   7.628391  -1.589092   0.440693
     5  C    0.369062  -0.515751   0.670752  -1.589092   8.640750  -0.554388
     6  C   -1.080141   0.546661  -0.545924   0.440693  -0.554388   7.950453
     7  C   -0.218890  -0.424558   0.034817   0.036988  -0.089071  -0.252908
     8  O   -0.054862   0.001188  -0.004726  -0.012573   0.033587   0.018342
     9  O   -0.037955  -0.038260   0.025837  -0.014178   0.013462   0.004069
    10  C   -0.029015   0.059820  -0.754559   0.186542  -0.776325   0.087549
    11  N    0.003101   0.029973  -0.002048   0.131503   0.008931   0.026362
    12  H   -0.616822   0.806819  -0.711766   0.181549  -0.034420   0.152241
    13  H    0.155156  -0.734466   1.135752  -0.852420   0.205880  -0.082278
    14  H    0.173746  -0.073117   0.170610  -0.873830   1.247370  -0.752627
    15  H   -0.657820   0.157883  -0.014659   0.194803  -0.724160   0.790518
    16  H    0.014365  -0.009688  -0.000638   0.001329  -0.003469  -0.016574
               7          8          9         10         11         12
     1  C   -0.218890  -0.054862  -0.037955  -0.029015   0.003101  -0.616822
     2  C   -0.424558   0.001188  -0.038260   0.059820   0.029973   0.806819
     3  C    0.034817  -0.004726   0.025837  -0.754559  -0.002048  -0.711766
     4  C    0.036988  -0.012573  -0.014178   0.186542   0.131503   0.181549
     5  C   -0.089071   0.033587   0.013462  -0.776325   0.008931  -0.034420
     6  C   -0.252908   0.018342   0.004069   0.087549   0.026362   0.152241
     7  C    6.293474  -0.118695   0.082295  -0.015109   0.002707   0.138827
     8  O   -0.118695   9.256445  -0.065515   0.002919  -0.000208  -0.012847
     9  O    0.082295  -0.065515   8.514022   0.003343  -0.000213  -0.084922
    10  C   -0.015109   0.002919   0.003343   6.923742  -0.402490  -0.039426
    11  N    0.002707  -0.000208  -0.000213  -0.402490   8.258537   0.005599
    12  H    0.138827  -0.012847  -0.084922  -0.039426   0.005599   1.237640
    13  H   -0.051517   0.002315   0.002201   0.110232  -0.061890  -0.212782
    14  H   -0.047577   0.003094   0.001148   0.083177  -0.059615  -0.017501
    15  H    0.120963  -0.048129  -0.004825  -0.032720   0.005584   0.030801
    16  H    0.084446  -0.109006   0.133856  -0.000453   0.000022   0.006855
              13         14         15         16
     1  C    0.155156   0.173746  -0.657820   0.014365
     2  C   -0.734466  -0.073117   0.157883  -0.009688
     3  C    1.135752   0.170610  -0.014659  -0.000638
     4  C   -0.852420  -0.873830   0.194803   0.001329
     5  C    0.205880   1.247370  -0.724160  -0.003469
     6  C   -0.082278  -0.752627   0.790518  -0.016574
     7  C   -0.051517  -0.047577   0.120963   0.084446
     8  O    0.002315   0.003094  -0.048129  -0.109006
     9  O    0.002201   0.001148  -0.004825   0.133856
    10  C    0.110232   0.083177  -0.032720  -0.000453
    11  N   -0.061890  -0.059615   0.005584   0.000022
    12  H   -0.212782  -0.017501   0.030801   0.006855
    13  H    1.454364   0.058055  -0.019716  -0.000441
    14  H    0.058055   1.441724  -0.228526  -0.000381
    15  H   -0.019716  -0.228526   1.284428   0.001835
    16  H   -0.000441  -0.000381   0.001835   0.594285
 Mulliken charges:
               1
     1  C    1.954095
     2  C   -0.415840
     3  C   -0.934268
     4  C    2.002787
     5  C   -0.903117
     6  C   -0.732047
     7  C    0.423809
     8  O   -0.891329
     9  O   -0.534365
    10  C    0.592771
    11  N   -0.945854
    12  H    0.170155
    13  H   -0.108446
    14  H   -0.125750
    15  H    0.143741
    16  H    0.303657
 Sum of Mulliken charges =   0.00000
 Mulliken charges with hydrogens summed into heavy atoms:
               1
     1  C    1.954095
     2  C   -0.245686
     3  C   -1.042714
     4  C    2.002787
     5  C   -1.028866
     6  C   -0.588306
     7  C    0.423809
     8  O   -0.891329
     9  O   -0.230708
    10  C    0.592771
    11  N   -0.945854
 Electronic spatial extent (au):  <R**2>=           2003.0416
 Charge=              0.0000 electrons
 Dipole moment (field-independent basis, Debye):
    X=              3.2782    Y=             -1.4541    Z=              0.0001  Tot=              3.5862
 Quadrupole moment (field-independent basis, Debye-Ang):
   XX=            -80.6944   YY=            -57.8439   ZZ=            -63.9018
   XY=             -7.4803   XZ=              0.0000   YZ=              0.0002
 Traceless Quadrupole moment (field-independent basis, Debye-Ang):
   XX=            -13.2143   YY=              9.6361   ZZ=              3.5782
   XY=             -7.4803   XZ=              0.0000   YZ=              0.0002
 Octapole moment (field-independent basis, Debye-Ang**2):
  XXX=            177.1985  YYY=             -1.9890  ZZZ=             -0.0001  XYY=             -4.7230
  XXY=            -29.1613  XXZ=              0.0009  XZZ=             10.8669  YZZ=             -0.0222
  YYZ=              0.0001  XYZ=              0.0003
 Hexadecapole moment (field-independent basis, Debye-Ang**3):
 XXXX=          -2578.5254 YYYY=           -368.1329 ZZZZ=            -66.8329 XXXY=           -142.2401
 XXXZ=             -0.0006 YYYX=            -11.9260 YYYZ=              0.0005 ZZZX=             -0.0002
 ZZZY=             -0.0002 XXYY=           -433.6896 XXZZ=           -372.8096 YYZZ=            -84.1736
 XXYZ=              0.0011 YYXZ=              0.0001 ZZXY=             -0.5740
 N-N= 5.243844060621D+02 E-N=-2.245187667725D+03  KE= 5.105283469949D+02
 ******************************Gaussian NBO Version 3.1******************************
             N A T U R A L   A T O M I C   O R B I T A L   A N D
          N A T U R A L   B O N D   O R B I T A L   A N A L Y S I S
 ******************************Gaussian NBO Version 3.1******************************
       /RESON  / : Allow strongly delocalized NBO set

 Analyzing the SCF density

 Job title: CYH-205-A_eq00000                                               

 Storage needed:   1159527 in NPA,   1544729 in NBO (********** available)
 GSVD:  LWork=       34527 too small for GESVD, short by      663948 words or      663948 for optimal perf.


 NATURAL POPULATIONS:  Natural atomic orbital occupancies 
                                                          
   NAO  Atom  No  lang   Type(AO)    Occupancy      Energy
 ----------------------------------------------------------
     1    C    1  S      Cor( 1S)     1.99901     -10.44178
     2    C    1  S      Val( 2S)     0.93767      -0.21808
     3    C    1  S      Ryd( 3S)     0.00129       1.77733
     4    C    1  S      Ryd( 4S)     0.00008       2.38589
     5    C    1  S      Ryd( 5S)     0.00003       3.54098
     6    C    1  px     Val( 2p)     1.05905      -0.11815
     7    C    1  px     Ryd( 4p)     0.00619       2.08453
     8    C    1  px     Ryd( 5p)     0.00006       2.38606
     9    C    1  px     Ryd( 3p)     0.00005       1.26887
    10    C    1  py     Val( 2p)     1.09482      -0.11214
    11    C    1  py     Ryd( 4p)     0.00553       1.91306
    12    C    1  py     Ryd( 5p)     0.00005       2.14681
    13    C    1  py     Ryd( 3p)     0.00002       1.24859
    14    C    1  pz     Val( 2p)     1.03523      -0.15690
    15    C    1  pz     Ryd( 4p)     0.00085       0.85759
    16    C    1  pz     Ryd( 5p)     0.00008       1.80422
    17    C    1  pz     Ryd( 3p)     0.00001       0.70659
    18    C    1  dxy    Ryd( 3d)     0.00064       2.84200
    19    C    1  dxy    Ryd( 4d)     0.00035       3.53949
    20    C    1  dxy    Ryd( 5d)     0.00009       5.14506
    21    C    1  dxz    Ryd( 3d)     0.00013       1.51711
    22    C    1  dxz    Ryd( 5d)     0.00009       2.80893
    23    C    1  dxz    Ryd( 4d)     0.00006       2.12837
    24    C    1  dyz    Ryd( 3d)     0.00042       1.39940
    25    C    1  dyz    Ryd( 5d)     0.00006       2.75236
    26    C    1  dyz    Ryd( 4d)     0.00003       2.32887
    27    C    1  dx2y2  Ryd( 3d)     0.00226       3.34755
    28    C    1  dx2y2  Ryd( 5d)     0.00018       3.82628
    29    C    1  dx2y2  Ryd( 4d)     0.00004       3.71739
    30    C    1  dz2    Ryd( 3d)     0.00080       1.81707
    31    C    1  dz2    Ryd( 4d)     0.00013       3.63436
    32    C    1  dz2    Ryd( 5d)     0.00007       4.58850
    33    C    1  f(0)   Ryd( 4f)     0.00052       1.35517
    34    C    1  f(0)   Ryd( 5f)     0.00013       3.50297
    35    C    1  f(C1)  Ryd( 4f)     0.00020       1.79220
    36    C    1  f(C1)  Ryd( 5f)     0.00038       3.63896
    37    C    1  f(S1)  Ryd( 4f)     0.00057       1.68803
    38    C    1  f(S1)  Ryd( 5f)     0.00021       3.65502
    39    C    1  f(C2)  Ryd( 4f)     0.00056       1.32865
    40    C    1  f(C2)  Ryd( 5f)     0.00002       3.54466
    41    C    1  f(S2)  Ryd( 4f)     0.00055       1.26091
    42    C    1  f(S2)  Ryd( 5f)     0.00003       3.55278
    43    C    1  f(C3)  Ryd( 4f)     0.00079       2.31115
    44    C    1  f(C3)  Ryd( 5f)     0.00011       4.17113
    45    C    1  f(S3)  Ryd( 4f)     0.00188       2.26411
    46    C    1  f(S3)  Ryd( 5f)     0.00015       4.43410
 
    47    C    2  S      Cor( 1S)     1.99920     -10.42695
    48    C    2  S      Val( 2S)     0.96481      -0.23862
    49    C    2  S      Ryd( 3S)     0.00112       1.79651
    50    C    2  S      Ryd( 5S)     0.00008       2.97371
    51    C    2  S      Ryd( 4S)     0.00003       2.08057
    52    C    2  px     Val( 2p)     1.08434      -0.09599
    53    C    2  px     Ryd( 4p)     0.00335       1.82054
    54    C    2  px     Ryd( 5p)     0.00013       2.17369
    55    C    2  px     Ryd( 3p)     0.00006       1.28931
    56    C    2  py     Val( 2p)     1.14306      -0.10066
    57    C    2  py     Ryd( 4p)     0.00426       1.62256
    58    C    2  py     Ryd( 5p)     0.00008       2.02953
    59    C    2  py     Ryd( 3p)     0.00004       1.32482
    60    C    2  pz     Val( 2p)     0.95277      -0.14721
    61    C    2  pz     Ryd( 4p)     0.00062       0.94879
    62    C    2  pz     Ryd( 5p)     0.00004       1.51978
    63    C    2  pz     Ryd( 3p)     0.00003       0.74439
    64    C    2  dxy    Ryd( 3d)     0.00193       2.45736
    65    C    2  dxy    Ryd( 5d)     0.00015       3.82711
    66    C    2  dxy    Ryd( 4d)     0.00010       2.84974
    67    C    2  dxz    Ryd( 3d)     0.00034       1.34352
    68    C    2  dxz    Ryd( 5d)     0.00005       3.02781
    69    C    2  dxz    Ryd( 4d)     0.00004       1.77471
    70    C    2  dyz    Ryd( 3d)     0.00023       1.24032
    71    C    2  dyz    Ryd( 5d)     0.00007       3.04995
    72    C    2  dyz    Ryd( 4d)     0.00003       1.48480
    73    C    2  dx2y2  Ryd( 4d)     0.00172       3.40634
    74    C    2  dx2y2  Ryd( 5d)     0.00021       4.04673
    75    C    2  dx2y2  Ryd( 3d)     0.00006       2.31178
    76    C    2  dz2    Ryd( 3d)     0.00091       1.68062
    77    C    2  dz2    Ryd( 4d)     0.00011       3.74009
    78    C    2  dz2    Ryd( 5d)     0.00007       4.51464
    79    C    2  f(0)   Ryd( 4f)     0.00016       1.48088
    80    C    2  f(0)   Ryd( 5f)     0.00006       3.30756
    81    C    2  f(C1)  Ryd( 4f)     0.00041       2.01298
    82    C    2  f(C1)  Ryd( 5f)     0.00018       3.56475
    83    C    2  f(S1)  Ryd( 4f)     0.00045       1.79558
    84    C    2  f(S1)  Ryd( 5f)     0.00012       3.44285
    85    C    2  f(C2)  Ryd( 4f)     0.00018       1.53193
    86    C    2  f(C2)  Ryd( 5f)     0.00003       3.32472
    87    C    2  f(S2)  Ryd( 4f)     0.00014       1.51175
    88    C    2  f(S2)  Ryd( 5f)     0.00003       3.35904
    89    C    2  f(C3)  Ryd( 4f)     0.00034       2.62959
    90    C    2  f(C3)  Ryd( 5f)     0.00016       3.94411
    91    C    2  f(S3)  Ryd( 4f)     0.00092       1.96442
    92    C    2  f(S3)  Ryd( 5f)     0.00022       4.03823
 
    93    C    3  S      Cor( 1S)     1.99920     -10.43165
    94    C    3  S      Val( 2S)     0.96205      -0.23763
    95    C    3  S      Ryd( 3S)     0.00109       1.68932
    96    C    3  S      Ryd( 5S)     0.00008       2.98797
    97    C    3  S      Ryd( 4S)     0.00002       1.72811
    98    C    3  px     Val( 2p)     1.07690      -0.09815
    99    C    3  px     Ryd( 4p)     0.00277       1.70532
   100    C    3  px     Ryd( 5p)     0.00011       2.10573
   101    C    3  px     Ryd( 3p)     0.00003       0.86644
   102    C    3  py     Val( 2p)     1.12837      -0.10119
   103    C    3  py     Ryd( 4p)     0.00392       1.59956
   104    C    3  py     Ryd( 5p)     0.00005       2.28131
   105    C    3  py     Ryd( 3p)     0.00004       1.08883
   106    C    3  pz     Val( 2p)     0.97040      -0.15157
   107    C    3  pz     Ryd( 4p)     0.00067       0.97769
   108    C    3  pz     Ryd( 5p)     0.00002       1.69830
   109    C    3  pz     Ryd( 3p)     0.00003       0.54849
   110    C    3  dxy    Ryd( 3d)     0.00182       2.81387
   111    C    3  dxy    Ryd( 5d)     0.00014       3.58823
   112    C    3  dxy    Ryd( 4d)     0.00006       3.50130
   113    C    3  dxz    Ryd( 3d)     0.00029       1.46887
   114    C    3  dxz    Ryd( 5d)     0.00004       2.74281
   115    C    3  dxz    Ryd( 4d)     0.00002       2.11824
   116    C    3  dyz    Ryd( 3d)     0.00015       1.35913
   117    C    3  dyz    Ryd( 5d)     0.00006       2.79131
   118    C    3  dyz    Ryd( 4d)     0.00003       1.89392
   119    C    3  dx2y2  Ryd( 4d)     0.00148       3.26652
   120    C    3  dx2y2  Ryd( 5d)     0.00027       3.68264
   121    C    3  dx2y2  Ryd( 3d)     0.00009       2.80603
   122    C    3  dz2    Ryd( 3d)     0.00081       1.65135
   123    C    3  dz2    Ryd( 4d)     0.00012       3.60704
   124    C    3  dz2    Ryd( 5d)     0.00005       3.82544
   125    C    3  f(0)   Ryd( 5f)     0.00011       3.42775
   126    C    3  f(0)   Ryd( 4f)     0.00003       2.19701
   127    C    3  f(C1)  Ryd( 5f)     0.00020       3.72163
   128    C    3  f(C1)  Ryd( 4f)     0.00002       3.24426
   129    C    3  f(S1)  Ryd( 5f)     0.00019       3.64483
   130    C    3  f(S1)  Ryd( 4f)     0.00002       2.87530
   131    C    3  f(C2)  Ryd( 5f)     0.00001       3.52661
   132    C    3  f(C2)  Ryd( 4f)     0.00003       2.38083
   133    C    3  f(S2)  Ryd( 5f)     0.00001       3.58547
   134    C    3  f(S2)  Ryd( 4f)     0.00002       2.25810
   135    C    3  f(C3)  Ryd( 4f)     0.00014       4.12262
   136    C    3  f(C3)  Ryd( 5f)     0.00004       6.02281
   137    C    3  f(S3)  Ryd( 5f)     0.00013       4.28709
   138    C    3  f(S3)  Ryd( 4f)     0.00007       3.92558
 
   139    C    4  S      Cor( 1S)     1.99893     -10.45473
   140    C    4  S      Val( 2S)     0.91048      -0.20128
   141    C    4  S      Ryd( 3S)     0.00113       1.56414
   142    C    4  S      Ryd( 5S)     0.00011       3.52265
   143    C    4  S      Ryd( 4S)     0.00003       2.66213
   144    C    4  px     Val( 2p)     1.06639      -0.11284
   145    C    4  px     Ryd( 4p)     0.00615       1.98401
   146    C    4  px     Ryd( 5p)     0.00004       3.32985
   147    C    4  px     Ryd( 3p)     0.00005       0.76691
   148    C    4  py     Val( 2p)     1.11611      -0.13112
   149    C    4  py     Ryd( 4p)     0.00186       1.79146
   150    C    4  py     Ryd( 5p)     0.00007       2.26111
   151    C    4  py     Ryd( 3p)     0.00001       0.67833
   152    C    4  pz     Val( 2p)     1.04543      -0.16456
   153    C    4  pz     Ryd( 4p)     0.00135       0.88147
   154    C    4  pz     Ryd( 5p)     0.00004       2.00376
   155    C    4  pz     Ryd( 3p)     0.00000       0.47289
   156    C    4  dxy    Ryd( 4d)     0.00071       3.17618
   157    C    4  dxy    Ryd( 3d)     0.00004       2.73893
   158    C    4  dxy    Ryd( 5d)     0.00005       5.03449
   159    C    4  dxz    Ryd( 4d)     0.00015       2.20309
   160    C    4  dxz    Ryd( 3d)     0.00007       1.96710
   161    C    4  dxz    Ryd( 5d)     0.00003       2.97411
   162    C    4  dyz    Ryd( 4d)     0.00040       1.79271
   163    C    4  dyz    Ryd( 3d)     0.00009       1.69550
   164    C    4  dyz    Ryd( 5d)     0.00002       3.00065
   165    C    4  dx2y2  Ryd( 3d)     0.00135       3.32061
   166    C    4  dx2y2  Ryd( 4d)     0.00006       3.35058
   167    C    4  dx2y2  Ryd( 5d)     0.00004       5.34699
   168    C    4  dz2    Ryd( 3d)     0.00073       2.47881
   169    C    4  dz2    Ryd( 4d)     0.00015       3.47202
   170    C    4  dz2    Ryd( 5d)     0.00006       4.76704
   171    C    4  f(0)   Ryd( 4f)     0.00044       1.47942
   172    C    4  f(0)   Ryd( 5f)     0.00014       3.49719
   173    C    4  f(C1)  Ryd( 4f)     0.00026       1.72959
   174    C    4  f(C1)  Ryd( 5f)     0.00024       3.54817
   175    C    4  f(S1)  Ryd( 4f)     0.00067       1.66910
   176    C    4  f(S1)  Ryd( 5f)     0.00018       3.53481
   177    C    4  f(C2)  Ryd( 4f)     0.00061       1.39980
   178    C    4  f(C2)  Ryd( 5f)     0.00004       3.57518
   179    C    4  f(S2)  Ryd( 4f)     0.00011       1.25892
   180    C    4  f(S2)  Ryd( 5f)     0.00001       3.38671
   181    C    4  f(C3)  Ryd( 4f)     0.00061       1.75383
   182    C    4  f(C3)  Ryd( 5f)     0.00011       4.14737
   183    C    4  f(S3)  Ryd( 4f)     0.00209       2.08304
   184    C    4  f(S3)  Ryd( 5f)     0.00020       4.36094
 
   185    C    5  S      Cor( 1S)     1.99920     -10.43102
   186    C    5  S      Val( 2S)     0.96271      -0.23917
   187    C    5  S      Ryd( 4S)     0.00106       1.72850
   188    C    5  S      Ryd( 5S)     0.00008       2.98335
   189    C    5  S      Ryd( 3S)     0.00002       1.68966
   190    C    5  px     Val( 2p)     1.08218      -0.09828
   191    C    5  px     Ryd( 4p)     0.00287       1.70578
   192    C    5  px     Ryd( 5p)     0.00011       2.10270
   193    C    5  px     Ryd( 3p)     0.00003       0.79508
   194    C    5  py     Val( 2p)     1.12430      -0.10004
   195    C    5  py     Ryd( 4p)     0.00384       1.60622
   196    C    5  py     Ryd( 5p)     0.00004       2.19532
   197    C    5  py     Ryd( 3p)     0.00004       1.03170
   198    C    5  pz     Val( 2p)     0.96939      -0.15088
   199    C    5  pz     Ryd( 4p)     0.00066       1.00862
   200    C    5  pz     Ryd( 5p)     0.00003       1.65129
   201    C    5  pz     Ryd( 3p)     0.00003       0.52949
   202    C    5  dxy    Ryd( 3d)     0.00196       2.58385
   203    C    5  dxy    Ryd( 5d)     0.00011       3.49444
   204    C    5  dxy    Ryd( 4d)     0.00008       3.30133
   205    C    5  dxz    Ryd( 3d)     0.00034       1.41991
   206    C    5  dxz    Ryd( 5d)     0.00003       2.77428
   207    C    5  dxz    Ryd( 4d)     0.00003       1.98714
   208    C    5  dyz    Ryd( 3d)     0.00018       1.35432
   209    C    5  dyz    Ryd( 5d)     0.00005       2.84530
   210    C    5  dyz    Ryd( 4d)     0.00003       1.76607
   211    C    5  dx2y2  Ryd( 4d)     0.00143       3.20350
   212    C    5  dx2y2  Ryd( 5d)     0.00026       3.66386
   213    C    5  dx2y2  Ryd( 3d)     0.00009       2.66814
   214    C    5  dz2    Ryd( 3d)     0.00079       1.62035
   215    C    5  dz2    Ryd( 4d)     0.00012       3.62424
   216    C    5  dz2    Ryd( 5d)     0.00005       3.74882
   217    C    5  f(0)   Ryd( 5f)     0.00010       3.42260
   218    C    5  f(0)   Ryd( 4f)     0.00003       2.09306
   219    C    5  f(C1)  Ryd( 5f)     0.00021       3.69826
   220    C    5  f(C1)  Ryd( 4f)     0.00002       3.15865
   221    C    5  f(S1)  Ryd( 5f)     0.00018       3.63416
   222    C    5  f(S1)  Ryd( 4f)     0.00002       2.67688
   223    C    5  f(C2)  Ryd( 5f)     0.00001       3.52270
   224    C    5  f(C2)  Ryd( 4f)     0.00002       2.29059
   225    C    5  f(S2)  Ryd( 5f)     0.00001       3.58609
   226    C    5  f(S2)  Ryd( 4f)     0.00002       2.10181
   227    C    5  f(C3)  Ryd( 4f)     0.00015       4.12104
   228    C    5  f(C3)  Ryd( 5f)     0.00004       5.62878
   229    C    5  f(S3)  Ryd( 5f)     0.00008       4.20935
   230    C    5  f(S3)  Ryd( 4f)     0.00010       3.73241
 
   231    C    6  S      Cor( 1S)     1.99920     -10.42505
   232    C    6  S      Val( 2S)     0.96667      -0.23680
   233    C    6  S      Ryd( 4S)     0.00117       1.73623
   234    C    6  S      Ryd( 5S)     0.00009       3.06536
   235    C    6  S      Ryd( 3S)     0.00002       1.67850
   236    C    6  px     Val( 2p)     1.07945      -0.09205
   237    C    6  px     Ryd( 4p)     0.00336       1.76787
   238    C    6  px     Ryd( 3p)     0.00008       1.22885
   239    C    6  px     Ryd( 5p)     0.00006       1.78315
   240    C    6  py     Val( 2p)     1.14772      -0.10065
   241    C    6  py     Ryd( 4p)     0.00434       1.61390
   242    C    6  py     Ryd( 3p)     0.00004       1.53818
   243    C    6  py     Ryd( 5p)     0.00005       1.66417
   244    C    6  pz     Val( 2p)     0.94096      -0.14416
   245    C    6  pz     Ryd( 3p)     0.00057       0.99704
   246    C    6  pz     Ryd( 4p)     0.00002       1.05604
   247    C    6  pz     Ryd( 5p)     0.00003       1.20580
   248    C    6  dxy    Ryd( 3d)     0.00177       2.62819
   249    C    6  dxy    Ryd( 5d)     0.00018       3.67781
   250    C    6  dxy    Ryd( 4d)     0.00009       2.76110
   251    C    6  dxz    Ryd( 3d)     0.00037       1.45742
   252    C    6  dxz    Ryd( 5d)     0.00002       2.85227
   253    C    6  dxz    Ryd( 4d)     0.00003       1.78120
   254    C    6  dyz    Ryd( 3d)     0.00024       1.41464
   255    C    6  dyz    Ryd( 5d)     0.00005       2.90451
   256    C    6  dyz    Ryd( 4d)     0.00003       1.50127
   257    C    6  dx2y2  Ryd( 4d)     0.00160       3.33414
   258    C    6  dx2y2  Ryd( 5d)     0.00024       3.89332
   259    C    6  dx2y2  Ryd( 3d)     0.00006       2.29891
   260    C    6  dz2    Ryd( 3d)     0.00080       1.76088
   261    C    6  dz2    Ryd( 4d)     0.00008       3.56785
   262    C    6  dz2    Ryd( 5d)     0.00007       3.80726
   263    C    6  f(0)   Ryd( 5f)     0.00008       3.42218
   264    C    6  f(0)   Ryd( 4f)     0.00003       2.12819
   265    C    6  f(C1)  Ryd( 5f)     0.00024       3.75136
   266    C    6  f(C1)  Ryd( 4f)     0.00002       3.20821
   267    C    6  f(S1)  Ryd( 5f)     0.00017       3.63996
   268    C    6  f(S1)  Ryd( 4f)     0.00003       2.81258
   269    C    6  f(C2)  Ryd( 5f)     0.00001       3.51763
   270    C    6  f(C2)  Ryd( 4f)     0.00003       2.33128
   271    C    6  f(S2)  Ryd( 5f)     0.00001       3.57307
   272    C    6  f(S2)  Ryd( 4f)     0.00002       2.14761
   273    C    6  f(C3)  Ryd( 4f)     0.00015       4.15827
   274    C    6  f(C3)  Ryd( 5f)     0.00004       5.91484
   275    C    6  f(S3)  Ryd( 5f)     0.00006       4.19443
   276    C    6  f(S3)  Ryd( 4f)     0.00012       3.74187
 
   277    C    7  S      Cor( 1S)     1.99939     -10.57911
   278    C    7  S      Val( 2S)     0.78963      -0.16334
   279    C    7  S      Ryd( 4S)     0.00420       1.86692
   280    C    7  S      Ryd( 3S)     0.00017       1.66987
   281    C    7  S      Ryd( 5S)     0.00006       2.31937
   282    C    7  px     Val( 2p)     0.91517      -0.08100
   283    C    7  px     Ryd( 5p)     0.00579       1.53194
   284    C    7  px     Ryd( 3p)     0.00022       1.09481
   285    C    7  px     Ryd( 4p)     0.00001       1.39536
   286    C    7  py     Val( 2p)     0.72147      -0.03111
   287    C    7  py     Ryd( 4p)     0.01390       1.56828
   288    C    7  py     Ryd( 3p)     0.00008       1.21224
   289    C    7  py     Ryd( 5p)     0.00007       1.71497
   290    C    7  pz     Val( 2p)     0.74181      -0.14346
   291    C    7  pz     Ryd( 5p)     0.00043       1.10830
   292    C    7  pz     Ryd( 3p)     0.00008       0.70434
   293    C    7  pz     Ryd( 4p)     0.00003       0.98690
   294    C    7  dxy    Ryd( 4d)     0.00057       3.23251
   295    C    7  dxy    Ryd( 3d)     0.00031       2.28078
   296    C    7  dxy    Ryd( 5d)     0.00009       3.85782
   297    C    7  dxz    Ryd( 4d)     0.00093       2.50403
   298    C    7  dxz    Ryd( 3d)     0.00011       1.47552
   299    C    7  dxz    Ryd( 5d)     0.00006       2.53720
   300    C    7  dyz    Ryd( 4d)     0.00164       2.66241
   301    C    7  dyz    Ryd( 3d)     0.00005       1.60541
   302    C    7  dyz    Ryd( 5d)     0.00005       2.69700
   303    C    7  dx2y2  Ryd( 4d)     0.00217       3.28642
   304    C    7  dx2y2  Ryd( 3d)     0.00014       1.91138
   305    C    7  dx2y2  Ryd( 5d)     0.00008       3.70275
   306    C    7  dz2    Ryd( 5d)     0.00024       3.52847
   307    C    7  dz2    Ryd( 3d)     0.00052       2.01082
   308    C    7  dz2    Ryd( 4d)     0.00009       3.21988
   309    C    7  f(0)   Ryd( 5f)     0.00010       3.28890
   310    C    7  f(0)   Ryd( 4f)     0.00003       2.54596
   311    C    7  f(C1)  Ryd( 5f)     0.00012       3.46952
   312    C    7  f(C1)  Ryd( 4f)     0.00001       3.10232
   313    C    7  f(S1)  Ryd( 5f)     0.00006       3.53878
   314    C    7  f(S1)  Ryd( 4f)     0.00004       3.40098
   315    C    7  f(C2)  Ryd( 5f)     0.00001       3.23587
   316    C    7  f(C2)  Ryd( 4f)     0.00005       2.70942
   317    C    7  f(S2)  Ryd( 5f)     0.00001       3.42789
   318    C    7  f(S2)  Ryd( 4f)     0.00000       2.89694
   319    C    7  f(C3)  Ryd( 4f)     0.00008       4.58957
   320    C    7  f(C3)  Ryd( 5f)     0.00003       8.22496
   321    C    7  f(S3)  Ryd( 5f)     0.00009       4.30450
   322    C    7  f(S3)  Ryd( 4f)     0.00004       4.16353
 
   323    O    8  S      Cor( 1S)     1.99977     -19.34836
   324    O    8  S      Val( 2S)     1.70240      -1.02505
   325    O    8  S      Ryd( 4S)     0.00056       2.92134
   326    O    8  S      Ryd( 3S)     0.00021       1.75188
   327    O    8  S      Ryd( 5S)     0.00001       8.40089
   328    O    8  px     Val( 2p)     1.76751      -0.36178
   329    O    8  px     Ryd( 4p)     0.00151       1.33120
   330    O    8  px     Ryd( 3p)     0.00010       0.76199
   331    O    8  px     Ryd( 5p)     0.00003       4.73190
   332    O    8  py     Val( 2p)     1.63928      -0.36412
   333    O    8  py     Ryd( 4p)     0.00131       1.46016
   334    O    8  py     Ryd( 3p)     0.00009       0.69252
   335    O    8  py     Ryd( 5p)     0.00006       5.27299
   336    O    8  pz     Val( 2p)     1.45165      -0.31035
   337    O    8  pz     Ryd( 4p)     0.00055       1.00412
   338    O    8  pz     Ryd( 3p)     0.00002       0.53011
   339    O    8  pz     Ryd( 5p)     0.00001       4.16580
   340    O    8  dxy    Ryd( 3d)     0.00820       2.00983
   341    O    8  dxy    Ryd( 4d)     0.00010       3.27433
   342    O    8  dxy    Ryd( 5d)     0.00003       6.53793
   343    O    8  dxz    Ryd( 3d)     0.00216       1.41482
   344    O    8  dxz    Ryd( 4d)     0.00001       1.70870
   345    O    8  dxz    Ryd( 5d)     0.00001       6.38359
   346    O    8  dyz    Ryd( 3d)     0.00508       1.50502
   347    O    8  dyz    Ryd( 4d)     0.00003       1.75416
   348    O    8  dyz    Ryd( 5d)     0.00002       6.34692
   349    O    8  dx2y2  Ryd( 3d)     0.00643       1.78654
   350    O    8  dx2y2  Ryd( 4d)     0.00008       2.25911
   351    O    8  dx2y2  Ryd( 5d)     0.00005       6.46038
   352    O    8  dz2    Ryd( 3d)     0.00283       1.59915
   353    O    8  dz2    Ryd( 4d)     0.00009       2.48374
   354    O    8  dz2    Ryd( 5d)     0.00001       6.46327
   355    O    8  f(0)   Ryd( 4f)     0.00015       3.07159
   356    O    8  f(0)   Ryd( 5f)     0.00000       5.49060
   357    O    8  f(C1)  Ryd( 4f)     0.00008       3.22608
   358    O    8  f(C1)  Ryd( 5f)     0.00001       5.59055
   359    O    8  f(S1)  Ryd( 4f)     0.00010       3.50641
   360    O    8  f(S1)  Ryd( 5f)     0.00001       5.74394
   361    O    8  f(C2)  Ryd( 4f)     0.00009       3.03446
   362    O    8  f(C2)  Ryd( 5f)     0.00001       5.70920
   363    O    8  f(S2)  Ryd( 4f)     0.00031       3.12127
   364    O    8  f(S2)  Ryd( 5f)     0.00001       5.60067
   365    O    8  f(C3)  Ryd( 4f)     0.00038       4.06163
   366    O    8  f(C3)  Ryd( 5f)     0.00001       6.03025
   367    O    8  f(S3)  Ryd( 4f)     0.00050       3.54135
   368    O    8  f(S3)  Ryd( 5f)     0.00003       5.92004
 
   369    O    9  S      Cor( 1S)     1.99977     -19.47743
   370    O    9  S      Val( 2S)     1.67358      -1.05791
   371    O    9  S      Ryd( 3S)     0.00060       1.73014
   372    O    9  S      Ryd( 4S)     0.00005       2.53043
   373    O    9  S      Ryd( 5S)     0.00001       9.26801
   374    O    9  px     Val( 2p)     1.51772      -0.39044
   375    O    9  px     Ryd( 3p)     0.00070       1.18605
   376    O    9  px     Ryd( 4p)     0.00010       1.57170
   377    O    9  px     Ryd( 5p)     0.00003       4.50732
   378    O    9  py     Val( 2p)     1.65018      -0.42420
   379    O    9  py     Ryd( 3p)     0.00086       1.07182
   380    O    9  py     Ryd( 4p)     0.00009       1.27013
   381    O    9  py     Ryd( 5p)     0.00009       4.38144
   382    O    9  pz     Val( 2p)     1.83432      -0.43440
   383    O    9  pz     Ryd( 3p)     0.00110       0.84015
   384    O    9  pz     Ryd( 4p)     0.00001       0.96554
   385    O    9  pz     Ryd( 5p)     0.00001       3.68904
   386    O    9  dxy    Ryd( 3d)     0.00479       1.81148
   387    O    9  dxy    Ryd( 4d)     0.00013       2.57884
   388    O    9  dxy    Ryd( 5d)     0.00004       6.65834
   389    O    9  dxz    Ryd( 3d)     0.00062       1.16829
   390    O    9  dxz    Ryd( 4d)     0.00005       1.95459
   391    O    9  dxz    Ryd( 5d)     0.00001       6.37816
   392    O    9  dyz    Ryd( 3d)     0.00447       1.32395
   393    O    9  dyz    Ryd( 4d)     0.00002       1.74239
   394    O    9  dyz    Ryd( 5d)     0.00004       6.40613
   395    O    9  dx2y2  Ryd( 3d)     0.00564       1.92353
   396    O    9  dx2y2  Ryd( 4d)     0.00007       2.19925
   397    O    9  dx2y2  Ryd( 5d)     0.00006       6.89022
   398    O    9  dz2    Ryd( 3d)     0.00301       1.50341
   399    O    9  dz2    Ryd( 4d)     0.00015       2.39719
   400    O    9  dz2    Ryd( 5d)     0.00001       6.63937
   401    O    9  f(0)   Ryd( 4f)     0.00057       2.73809
   402    O    9  f(0)   Ryd( 5f)     0.00001       5.93833
   403    O    9  f(C1)  Ryd( 4f)     0.00022       3.32236
   404    O    9  f(C1)  Ryd( 5f)     0.00001       6.22083
   405    O    9  f(S1)  Ryd( 4f)     0.00017       3.29504
   406    O    9  f(S1)  Ryd( 5f)     0.00001       6.08878
   407    O    9  f(C2)  Ryd( 4f)     0.00003       2.83762
   408    O    9  f(C2)  Ryd( 5f)     0.00001       6.08695
   409    O    9  f(S2)  Ryd( 4f)     0.00012       2.77293
   410    O    9  f(S2)  Ryd( 5f)     0.00001       5.96847
   411    O    9  f(C3)  Ryd( 4f)     0.00015       4.43088
   412    O    9  f(C3)  Ryd( 5f)     0.00006       6.56869
   413    O    9  f(S3)  Ryd( 4f)     0.00005       3.67879
   414    O    9  f(S3)  Ryd( 5f)     0.00001       6.41756
 
   415    C   10  S      Cor( 1S)     1.99925     -10.44145
   416    C   10  S      Val( 2S)     0.84976      -0.14085
   417    C   10  S      Ryd( 4S)     0.00828       1.63157
   418    C   10  S      Ryd( 5S)     0.00021       2.17434
   419    C   10  S      Ryd( 3S)     0.00000       1.42453
   420    C   10  px     Val( 2p)     0.99829       0.03416
   421    C   10  px     Ryd( 4p)     0.01337       1.90203
   422    C   10  px     Ryd( 5p)     0.00009       1.99534
   423    C   10  px     Ryd( 3p)     0.00001       1.42301
   424    C   10  py     Val( 2p)     0.92231      -0.10695
   425    C   10  py     Ryd( 4p)     0.00408       1.12033
   426    C   10  py     Ryd( 3p)     0.00010       1.08118
   427    C   10  py     Ryd( 5p)     0.00006       1.19168
   428    C   10  pz     Val( 2p)     0.93215      -0.10873
   429    C   10  pz     Ryd( 5p)     0.00029       1.01066
   430    C   10  pz     Ryd( 3p)     0.00002       0.84075
   431    C   10  pz     Ryd( 4p)     0.00001       0.93744
   432    C   10  dxy    Ryd( 4d)     0.00031       2.50276
   433    C   10  dxy    Ryd( 3d)     0.00024       2.28177
   434    C   10  dxy    Ryd( 5d)     0.00002       2.62417
   435    C   10  dxz    Ryd( 4d)     0.00030       2.34191
   436    C   10  dxz    Ryd( 3d)     0.00035       2.22755
   437    C   10  dxz    Ryd( 5d)     0.00003       2.56675
   438    C   10  dyz    Ryd( 5d)     0.00000       2.03542
   439    C   10  dyz    Ryd( 3d)     0.00000       1.69999
   440    C   10  dyz    Ryd( 4d)     0.00000       1.87003
   441    C   10  dx2y2  Ryd( 3d)     0.00084       3.12403
   442    C   10  dx2y2  Ryd( 4d)     0.00024       3.45164
   443    C   10  dx2y2  Ryd( 5d)     0.00004       4.81893
   444    C   10  dz2    Ryd( 4d)     0.00036       2.52538
   445    C   10  dz2    Ryd( 3d)     0.00019       2.24587
   446    C   10  dz2    Ryd( 5d)     0.00003       3.64600
   447    C   10  f(0)   Ryd( 4f)     0.00011       2.24780
   448    C   10  f(0)   Ryd( 5f)     0.00005       2.46706
   449    C   10  f(C1)  Ryd( 4f)     0.00174       2.88748
   450    C   10  f(C1)  Ryd( 5f)     0.00003       3.04396
   451    C   10  f(S1)  Ryd( 4f)     0.00003       2.09449
   452    C   10  f(S1)  Ryd( 5f)     0.00003       2.43414
   453    C   10  f(C2)  Ryd( 4f)     0.00015       2.38760
   454    C   10  f(C2)  Ryd( 5f)     0.00015       2.55424
   455    C   10  f(S2)  Ryd( 5f)     0.00003       2.32764
   456    C   10  f(S2)  Ryd( 4f)     0.00001       2.24435
   457    C   10  f(C3)  Ryd( 4f)     0.00280       3.30279
   458    C   10  f(C3)  Ryd( 5f)     0.00005       3.77790
   459    C   10  f(S3)  Ryd( 5f)     0.00036       3.02638
   460    C   10  f(S3)  Ryd( 4f)     0.00033       2.83429
 
   461    N   11  S      Cor( 1S)     1.99961     -14.47709
   462    N   11  S      Val( 2S)     1.58227      -0.66740
   463    N   11  S      Ryd( 4S)     0.00254       2.81092
   464    N   11  S      Ryd( 3S)     0.00011       2.45525
   465    N   11  S      Ryd( 5S)     0.00003       8.29724
   466    N   11  px     Val( 2p)     1.50877      -0.23043
   467    N   11  px     Ryd( 3p)     0.00168       1.07538
   468    N   11  px     Ryd( 5p)     0.00026       5.28395
   469    N   11  px     Ryd( 4p)     0.00005       1.89220
   470    N   11  py     Val( 2p)     1.07544      -0.16034
   471    N   11  py     Ryd( 4p)     0.00024       0.84163
   472    N   11  py     Ryd( 5p)     0.00002       3.70271
   473    N   11  py     Ryd( 3p)     0.00002       0.76804
   474    N   11  pz     Val( 2p)     1.08309      -0.16157
   475    N   11  pz     Ryd( 4p)     0.00059       0.79914
   476    N   11  pz     Ryd( 5p)     0.00001       3.48939
   477    N   11  pz     Ryd( 3p)     0.00002       0.73512
   478    N   11  dxy    Ryd( 4d)     0.00570       1.73874
   479    N   11  dxy    Ryd( 3d)     0.00006       1.42158
   480    N   11  dxy    Ryd( 5d)     0.00001       4.75439
   481    N   11  dxz    Ryd( 4d)     0.00557       1.51099
   482    N   11  dxz    Ryd( 3d)     0.00005       1.28394
   483    N   11  dxz    Ryd( 5d)     0.00004       4.75311
   484    N   11  dyz    Ryd( 4d)     0.00001       1.33580
   485    N   11  dyz    Ryd( 3d)     0.00001       1.01901
   486    N   11  dyz    Ryd( 5d)     0.00000       4.81431
   487    N   11  dx2y2  Ryd( 3d)     0.00961       2.16063
   488    N   11  dx2y2  Ryd( 4d)     0.00019       2.89227
   489    N   11  dx2y2  Ryd( 5d)     0.00003       4.99706
   490    N   11  dz2    Ryd( 3d)     0.00327       1.62075
   491    N   11  dz2    Ryd( 4d)     0.00012       1.99958
   492    N   11  dz2    Ryd( 5d)     0.00001       4.86803
   493    N   11  f(0)   Ryd( 5f)     0.00012       3.82188
   494    N   11  f(0)   Ryd( 4f)     0.00002       2.72550
   495    N   11  f(C1)  Ryd( 5f)     0.00022       4.32875
   496    N   11  f(C1)  Ryd( 4f)     0.00001       3.49388
   497    N   11  f(S1)  Ryd( 5f)     0.00002       3.66652
   498    N   11  f(S1)  Ryd( 4f)     0.00001       2.60114
   499    N   11  f(C2)  Ryd( 5f)     0.00020       3.95275
   500    N   11  f(C2)  Ryd( 4f)     0.00002       2.83862
   501    N   11  f(S2)  Ryd( 5f)     0.00000       3.81611
   502    N   11  f(S2)  Ryd( 4f)     0.00000       3.16049
   503    N   11  f(C3)  Ryd( 5f)     0.00027       4.47331
   504    N   11  f(C3)  Ryd( 4f)     0.00000       3.48115
   505    N   11  f(S3)  Ryd( 5f)     0.00026       4.30215
   506    N   11  f(S3)  Ryd( 4f)     0.00003       3.02485
 
   507    H   12  S      Val( 1S)     0.76135       0.04336
   508    H   12  S      Ryd( 3S)     0.00046       1.90680
   509    H   12  S      Ryd( 2S)     0.00014       0.63991
   510    H   12  S      Ryd( 4S)     0.00004       2.03483
   511    H   12  px     Ryd( 2p)     0.00059       0.97136
   512    H   12  px     Ryd( 4p)     0.00011       4.23343
   513    H   12  px     Ryd( 3p)     0.00006       3.46915
   514    H   12  py     Ryd( 2p)     0.00057       0.88516
   515    H   12  py     Ryd( 4p)     0.00018       4.26662
   516    H   12  py     Ryd( 3p)     0.00005       4.23568
   517    H   12  pz     Ryd( 2p)     0.00016       0.58991
   518    H   12  pz     Ryd( 4p)     0.00002       4.00834
   519    H   12  pz     Ryd( 3p)     0.00005       2.04839
   520    H   12  dxy    Ryd( 3d)     0.00008       2.34813
   521    H   12  dxy    Ryd( 4d)     0.00004       4.42915
   522    H   12  dxz    Ryd( 3d)     0.00002       1.42781
   523    H   12  dxz    Ryd( 4d)     0.00001       3.91913
   524    H   12  dyz    Ryd( 3d)     0.00003       1.50163
   525    H   12  dyz    Ryd( 4d)     0.00001       4.06465
   526    H   12  dx2y2  Ryd( 3d)     0.00002       2.20029
   527    H   12  dx2y2  Ryd( 4d)     0.00004       4.55475
   528    H   12  dz2    Ryd( 3d)     0.00002       2.35269
   529    H   12  dz2    Ryd( 4d)     0.00003       4.11496
 
   530    H   13  S      Val( 1S)     0.77023       0.03311
   531    H   13  S      Ryd( 4S)     0.00036       1.85305
   532    H   13  S      Ryd( 2S)     0.00012       0.85752
   533    H   13  S      Ryd( 3S)     0.00003       1.76632
   534    H   13  px     Ryd( 2p)     0.00052       1.09993
   535    H   13  px     Ryd( 4p)     0.00007       4.09214
   536    H   13  px     Ryd( 3p)     0.00008       2.78367
   537    H   13  py     Ryd( 2p)     0.00047       1.00368
   538    H   13  py     Ryd( 4p)     0.00014       4.55214
   539    H   13  py     Ryd( 3p)     0.00005       3.73360
   540    H   13  pz     Ryd( 2p)     0.00016       0.74330
   541    H   13  pz     Ryd( 4p)     0.00007       3.70042
   542    H   13  pz     Ryd( 3p)     0.00003       1.85792
   543    H   13  dxy    Ryd( 3d)     0.00008       2.16385
   544    H   13  dxy    Ryd( 4d)     0.00004       4.27063
   545    H   13  dxz    Ryd( 3d)     0.00000       1.29228
   546    H   13  dxz    Ryd( 4d)     0.00001       3.80878
   547    H   13  dyz    Ryd( 3d)     0.00001       1.46180
   548    H   13  dyz    Ryd( 4d)     0.00001       3.98002
   549    H   13  dx2y2  Ryd( 3d)     0.00003       1.96320
   550    H   13  dx2y2  Ryd( 4d)     0.00005       4.32100
   551    H   13  dz2    Ryd( 3d)     0.00002       1.79759
   552    H   13  dz2    Ryd( 4d)     0.00003       3.91834
 
   553    H   14  S      Val( 1S)     0.76941       0.03451
   554    H   14  S      Ryd( 4S)     0.00035       1.87667
   555    H   14  S      Ryd( 2S)     0.00012       0.83796
   556    H   14  S      Ryd( 3S)     0.00003       1.76533
   557    H   14  px     Ryd( 2p)     0.00052       1.05925
   558    H   14  px     Ryd( 4p)     0.00006       4.07150
   559    H   14  px     Ryd( 3p)     0.00009       2.84104
   560    H   14  py     Ryd( 2p)     0.00046       0.97508
   561    H   14  py     Ryd( 4p)     0.00014       4.44539
   562    H   14  py     Ryd( 3p)     0.00007       3.74965
   563    H   14  pz     Ryd( 2p)     0.00014       0.72672
   564    H   14  pz     Ryd( 4p)     0.00006       3.72245
   565    H   14  pz     Ryd( 3p)     0.00005       1.84834
   566    H   14  dxy    Ryd( 3d)     0.00008       2.11454
   567    H   14  dxy    Ryd( 4d)     0.00004       4.25691
   568    H   14  dxz    Ryd( 3d)     0.00001       1.28954
   569    H   14  dxz    Ryd( 4d)     0.00001       3.81364
   570    H   14  dyz    Ryd( 3d)     0.00001       1.44770
   571    H   14  dyz    Ryd( 4d)     0.00001       3.96861
   572    H   14  dx2y2  Ryd( 3d)     0.00003       1.99218
   573    H   14  dx2y2  Ryd( 4d)     0.00005       4.30380
   574    H   14  dz2    Ryd( 3d)     0.00002       1.80098
   575    H   14  dz2    Ryd( 4d)     0.00003       3.91558
 
   576    H   15  S      Val( 1S)     0.75579       0.05009
   577    H   15  S      Ryd( 3S)     0.00047       1.93572
   578    H   15  S      Ryd( 2S)     0.00016       0.59382
   579    H   15  S      Ryd( 4S)     0.00004       1.98039
   580    H   15  px     Ryd( 2p)     0.00050       1.03996
   581    H   15  px     Ryd( 4p)     0.00011       4.03985
   582    H   15  px     Ryd( 3p)     0.00005       2.82668
   583    H   15  py     Ryd( 2p)     0.00062       0.89099
   584    H   15  py     Ryd( 3p)     0.00017       4.11324
   585    H   15  py     Ryd( 4p)     0.00007       4.13068
   586    H   15  pz     Ryd( 2p)     0.00011       0.65206
   587    H   15  pz     Ryd( 4p)     0.00002       3.87368
   588    H   15  pz     Ryd( 3p)     0.00007       1.71800
   589    H   15  dxy    Ryd( 3d)     0.00008       2.24926
   590    H   15  dxy    Ryd( 4d)     0.00004       4.36158
   591    H   15  dxz    Ryd( 3d)     0.00001       1.33567
   592    H   15  dxz    Ryd( 4d)     0.00000       3.87812
   593    H   15  dyz    Ryd( 3d)     0.00001       1.47434
   594    H   15  dyz    Ryd( 4d)     0.00001       4.04740
   595    H   15  dx2y2  Ryd( 3d)     0.00004       2.22079
   596    H   15  dx2y2  Ryd( 4d)     0.00004       4.48826
   597    H   15  dz2    Ryd( 3d)     0.00003       1.91333
   598    H   15  dz2    Ryd( 4d)     0.00004       3.99979
 
   599    H   16  S      Val( 1S)     0.49182       0.11413
   600    H   16  S      Ryd( 4S)     0.00099       1.82118
   601    H   16  S      Ryd( 2S)     0.00016       0.93608
   602    H   16  S      Ryd( 3S)     0.00013       1.32735
   603    H   16  px     Ryd( 2p)     0.00026       2.69342
   604    H   16  px     Ryd( 4p)     0.00035       3.74056
   605    H   16  px     Ryd( 3p)     0.00003       3.09996
   606    H   16  py     Ryd( 2p)     0.00023       1.82006
   607    H   16  py     Ryd( 4p)     0.00003       3.00462
   608    H   16  py     Ryd( 3p)     0.00002       2.96611
   609    H   16  pz     Ryd( 2p)     0.00053       1.56782
   610    H   16  pz     Ryd( 4p)     0.00004       2.76846
   611    H   16  pz     Ryd( 3p)     0.00001       2.70617
   612    H   16  dxy    Ryd( 3d)     0.00005       1.24955
   613    H   16  dxy    Ryd( 4d)     0.00001       4.37893
   614    H   16  dxz    Ryd( 3d)     0.00010       1.10830
   615    H   16  dxz    Ryd( 4d)     0.00000       4.25571
   616    H   16  dyz    Ryd( 3d)     0.00005       1.12291
   617    H   16  dyz    Ryd( 4d)     0.00000       3.78377
   618    H   16  dx2y2  Ryd( 3d)     0.00007       1.84692
   619    H   16  dx2y2  Ryd( 4d)     0.00001       4.64495
   620    H   16  dz2    Ryd( 3d)     0.00011       1.62270
   621    H   16  dz2    Ryd( 4d)     0.00000       4.05211

 WARNING:  1 low occupancy (<1.9990e) core orbital  found on  C    4

 WARNING:  Population inversion found on atom  C    1
           Population inversion found on atom  C    2
           Population inversion found on atom  C    3
           Population inversion found on atom  C    4
           Population inversion found on atom  C    5
           Population inversion found on atom  C    6
           Population inversion found on atom  C    7
           Population inversion found on atom  O    8
           Population inversion found on atom  O    9
           Population inversion found on atom  C   10
           Population inversion found on atom  N   11
           Population inversion found on atom  H   12
           Population inversion found on atom  H   13
           Population inversion found on atom  H   14
           Population inversion found on atom  H   15
           Population inversion found on atom  H   16


 Summary of Natural Population Analysis:                  
                                                          
                                       Natural Population 
                Natural  -----------------------------------------------
    Atom  No    Charge         Core      Valence    Rydberg      Total
 -----------------------------------------------------------------------
      C    1   -0.15145      1.99901     4.12676    0.02568     6.15145
      C    2   -0.16345      1.99920     4.14498    0.01926     6.16345
      C    3   -0.15217      1.99920     4.13772    0.01525     6.15217
      C    4   -0.15784      1.99893     4.13841    0.02050     6.15784
      C    5   -0.15312      1.99920     4.13858    0.01533     6.15312
      C    6   -0.15048      1.99920     4.13479    0.01648     6.15048
      C    7    0.79981      1.99939     3.16807    0.03273     5.20019
      O    8   -0.59192      1.99977     6.56084    0.03130     8.59192
      O    9   -0.69975      1.99977     6.67580    0.02418     8.69975
      C   10    0.26293      1.99925     3.70251    0.03531     5.73707
      N   11   -0.28061      1.99961     5.24957    0.03143     7.28061
      H   12    0.23590      0.00000     0.76135    0.00274     0.76410
      H   13    0.22738      0.00000     0.77023    0.00239     0.77262
      H   14    0.22824      0.00000     0.76941    0.00236     0.77176
      H   15    0.24151      0.00000     0.75579    0.00270     0.75849
      H   16    0.50503      0.00000     0.49182    0.00316     0.49497
 =======================================================================
   * Total *    0.00000     21.99254    53.72664    0.28082    76.00000

                                 Natural Population      
 --------------------------------------------------------
   Core                      21.99254 ( 99.9661% of  22)
   Valence                   53.72664 ( 99.4938% of  54)
   Natural Minimal Basis     75.71918 ( 99.6305% of  76)
   Natural Rydberg Basis      0.28082 (  0.3695% of  76)
 --------------------------------------------------------

    Atom  No          Natural Electron Configuration
 ----------------------------------------------------------------------------
      C    1      [core]2S( 0.94)2p( 3.19)4p( 0.01)4f( 0.01)
      C    2      [core]2S( 0.96)2p( 3.18)4p( 0.01)
      C    3      [core]2S( 0.96)2p( 3.18)4p( 0.01)
[...]
     6          0.62763140         -1.67560709          1.53786780
     6          1.00902989         -2.64176158         -0.86139597
     6          0.42646383         -1.16608473         -2.96233688
     6         -0.53527536          1.27011000         -2.67295975
     6         -0.91137726          2.22285005         -0.27131585
     6         -0.77406459          1.87507557          4.37312782
     8         -1.59643970          3.95836240          4.72718891
     8         -0.15352753          0.30327667          6.26858353
     6          0.82166485         -2.16720459         -5.45471314
     7          1.13735990         -2.96692144         -7.44487152
     1          1.07031990         -2.79696659          3.18427502
     1          1.75245642         -4.52494485         -1.12376529
     1         -0.97586170          2.38614163         -4.32469712
     1         -1.65389347          4.10373099          0.01544086
     1         -0.50053679          1.18238431          7.83159719

 Electric dipole moment (dipole orientation):
 (Debye = 10**-18 statcoulomb cm , SI units = C m)
                  (au)            (Debye)         (10**-30 SI)
   Tot        0.140854D+01      0.358016D+01      0.119421D+02
   x          0.000000D+00      0.000000D+00      0.000000D+00
   y          0.000000D+00      0.000000D+00      0.000000D+00
   z          0.140854D+01      0.358016D+01      0.119421D+02

 Dipole polarizability, Alpha (dipole orientation).
 (esu units = cm**3 , SI units = C**2 m**2 J**-1)
 Alpha(0;0):
               (au)            (10**-24 esu)      (10**-40 SI)
   iso        0.106038D+03      0.157132D+02      0.174833D+02
   aniso      0.880746D+02      0.130513D+02      0.145215D+02
   xx         0.652267D+02      0.966560D+01      0.107544D+02
   yx        -0.178106D+02     -0.263925D+01     -0.293656D+01
   yy         0.103312D+03      0.153093D+02      0.170339D+02
   zx        -0.807999D+01     -0.119733D+01     -0.133221D+01
   zy         0.204691D+02      0.303321D+01      0.337490D+01
   zz         0.149575D+03      0.221647D+02      0.246616D+02

 ----------------------------------------------------------------------
 Unable to Open any file for archive entry.
 1\1\GINC-AE13\Freq\RM062X\Aug-CC-pVTZ\C8H5N1O2\AKJ\27-Apr-2023\0\\#N G
 eom=AllCheck Guess=TCheck SCRF=Check GenChk RM062X/Aug-CC-pVTZ Freq\\C
 YH-205-A_eq00000\\0,1\C,-1.052130993,0.1077858713,-0.0910244063\C,-0.4
 749872165,-1.1546241065,-0.0064820745\C,0.8997668263,-1.2765248972,0.0
 89926063\C,1.6916926858,-0.1304044362,0.1012073094\C,1.1143512261,1.13
 60644954,0.0165040814\C,-0.2592166951,1.250329979,-0.0795464443\C,-2.5
 269352571,0.2893798402,-0.1962984682\O,-3.0741083539,1.3546311099,-0.2
 716398645\O,-3.1987464759,-0.8744030407,-0.1988885411\C,3.1193504169,-
 0.2556707655,0.20127706\N,4.2593903052,-0.3558706627,0.2811926407\H,-1
 .1018014238,-2.0338654577,-0.0164274718\H,1.3654529549,-2.2490678257,0
 .1564656327\H,1.7447839515,2.0133183908,0.0267633267\H,-0.7367258069,2
 .2175698898,-0.1466834032\H,-4.1386361548,-0.660248394,-0.2695454451\\
 Version=ES64L-G16RevC.01\State=1-A\HF=-513.0651746\RMSD=1.847e-09\RMSF
 =7.307e-05\ZeroPoint=0.1151621\Thermal=0.1240459\ETot=-512.9411287\HTo
 t=-512.9401845\GTot=-512.9847747\Dipole=-1.3350051,-0.4431699,-0.07319
 63\DipoleDeriv=-0.5561454,0.0407793,-0.0371225,0.0366821,0.0314336,0.0
 004581,-0.0369767,0.0007336,-0.0259194,0.0500869,0.1974273,0.0015391,-
 0.0392146,-0.0498458,-0.0037308,0.0101443,0.012101,-0.0800411,-0.13142
 23,-0.1877327,0.0039011,-0.0259955,0.0020081,-0.0050009,-0.0019831,-0.
 0158217,-0.087194,0.101307,0.0106579,0.0030862,0.0164784,0.2063846,-0.
 0046098,0.0028739,-0.0049991,0.0497576,-0.0708775,0.2099198,-0.0067439
 ,0.0279299,-0.0375017,0.0001684,-0.0001223,0.0123437,-0.0846918,-0.004
 1116,-0.2046935,0.0123244,0.0366915,-0.0172772,0.0002816,0.0035391,-0.
 0158661,-0.0761891,2.2063517,0.0112887,0.1246267,0.0842595,1.6568764,-
 0.0423726,0.1219666,-0.0472556,0.3471591,-1.1247873,0.367803,-0.064242
 2,0.3057617,-1.0210098,0.044341,-0.0619777,0.0484801,-0.3704245,-1.034
 0796,-0.4987134,-0.0271949,-0.5139165,-0.9569729,-0.0125288,-0.026634,
 -0.0115016,-0.3577169,0.3541862,-0.026238,0.0148024,-0.0239526,0.06581
 64,0.0013584,0.0147194,0.0012055,0.1481362,-0.4386879,0.0129398,-0.008
 2263,0.0120565,-0.3018678,0.0000464,-0.0081944,0.0001055,-0.3233129,0.
 0817569,-0.030047,-0.0021246,-0.0337865,0.0445155,0.0008444,-0.0019885
 ,0.0010947,0.1296786,0.0498249,0.0372085,-0.0070975,0.0342983,0.021649
 4,0.0064434,-0.0069911,0.0066384,0.1349709,0.0374971,-0.0400177,-0.005
 1155,-0.0365883,0.0373495,0.0011314,-0.0052399,0.0009017,0.1353415,0.1
 00291,0.0246733,-0.0027795,0.011529,0.0495737,0.00364,-0.0023014,0.004
 519,0.1280964,0.3788098,0.0747447,0.0003671,0.1077669,0.2688681,0.0095
 299,-0.0008342,0.007321,0.3323491\Polar=158.3614353,-5.7992546,101.023
 6406,6.912037,-1.9461372,58.7289247\Quadrupole=-8.9739444,6.3209564,2.
 652988,6.368667,-1.0148121,0.2954298\PG=C01 [X(C8H5N1O2)]\NImag=0\\0.6
 5177761,0.00428939,0.72359296,0.03354469,-0.02065351,0.15102723,-0.159
 41524,0.03438577,-0.00757268,0.71300794,0.10624751,-0.30025768,0.01567
 020,0.04612169,0.72414712,-0.01018713,0.01086255,-0.06600467,0.0365075
 9,-0.01808613,0.14533694,-0.01776266,0.09030549,-0.00494752,-0.3472747
 0,-0.01967757,-0.01821029,0.69583812,0.03275862,0.02892707,0.00139683,
 0.05816481,-0.13541585,0.00647581,-0.04301926,0.73503159,-0.00285389,0
 .00524674,0.00669771,-0.02104232,0.00126804,-0.06583275,0.03888256,-0.
 02459865,0.14153768,-0.00165871,-0.00726414,0.00058756,-0.03913132,-0.
 02069984,-0.00227169,-0.17843241,-0.12402530,-0.00306200,0.68249735,-0
 .00699524,-0.07740167,0.00211195,-0.08030475,0.04889714,-0.00693026,-0
 .05386893,-0.26783921,0.00376834,0.00044673,0.66417836,0.00057776,0.00
 209400,-0.00652806,-0.00010304,-0.00294264,0.00618153,-0.00561453,-0.0
 0092526,-0.06555597,0.03583503,-0.01880082,0.14969537,-0.03775738,-0.0
 7731933,-0.00014199,-0.05590299,0.03799771,-0.00478749,0.07435998,0.01
 699286,0.00378698,-0.14978822,0.03132574,-0.00681004,0.71653990,-0.020
 44311,0.04872390,-0.00290712,0.03838570,-0.02645393,0.00334836,-0.0401
 7637,-0.05855103,-0.00024781,0.10141619,-0.29346593,0.01509603,0.05099
 475,0.71638415,-0.00221141,-0.00671224,0.00651003,-0.00480163,0.003322
 45,-0.00544888,0.00586696,0.00357688,0.00877636,-0.00936015,0.01040685
 ,-0.06603701,0.03682590,-0.01761896,0.14145901,-0.18579322,-0.05457732
 ,-0.00599930,0.07472643,-0.03981842,0.00599348,-0.06808194,-0.03101604
 ,-0.00308276,-0.01898262,0.09207358,-0.00502387,-0.35309550,-0.0210489
 1,-0.01856196,0.70972980,-0.12659195,-0.27002532,-0.00106219,0.0164482
 9,-0.05900204,0.00349431,-0.03139862,-0.01465829,-0.00175419,0.0331598
 3,0.02969043,0.00135791,0.05594027,-0.13577968,0.00634708,-0.04002879,
 0.73269298,-0.00337913,0.00375568,-0.06680399,0.00394631,-0.00027008,0
 .00706792,-0.00306881,-0.00172854,-0.00527812,-0.00288042,0.00529933,0
 .00565302,-0.02136316,0.00119636,-0.06566629,0.03935144,-0.02412193,0.
 14680824,-0.20368002,0.00987214,-0.00828590,-0.01201941,0.01532798,-0.
 00142837,0.00443549,0.00119616,-0.00033726,0.00184610,-0.00043564,0.00
 021557,0.00267848,-0.00348286,-0.00024658,-0.02855721,-0.01197993,-0.0
 0164310,0.71798203,-0.00115896,-0.09765057,0.00037534,0.02836684,0.005
 44964,0.00173588,0.00473115,-0.00620274,0.00086335,0.00016080,-0.00517
 745,0.00015769,-0.00801903,-0.00468793,-0.00006546,-0.02171337,0.01486
 561,-0.00190197,-0.17321241,0.92603462,-0.00788308,0.00111329,-0.08577
 622,-0.00190294,0.00086326,0.00083812,-0.00046599,0.00062696,0.0087732
 0,0.00019395,0.00011776,-0.00113053,-0.00008169,0.00023799,0.00824526,
 -0.00128894,-0.00125047,0.00247842,0.03988504,-0.03741734,0.21990153,-
 0.02775304,0.04784727,-0.00505139,-0.00626344,-0.00621221,-0.00034651,
 -0.00275807,0.00179678,-0.00012540,-0.00069409,0.00169429,-0.00011927,
 0.00121216,0.00067814,0.00011697,-0.00092099,0.00304720,-0.00018330,-0
 .26633330,0.26581730,-0.02215768,0.26406239,0.02884698,-0.01393877,0.0
 0322750,0.00140685,0.00285823,0.00007360,0.00095859,0.00042953,-0.0000
 1918,-0.00032867,0.00045010,-0.00003229,0.00181685,0.00104333,0.000050
 70,-0.00545685,-0.00649402,-0.00012283,0.27482433,-0.60932009,0.037648
 36,-0.30765884,0.73629079,-0.00436091,0.00449866,0.02129134,-0.0006235
 4,-0.00043600,0.00226863,-0.00009482,0.00003676,-0.00186947,-0.0000457
 0,0.00010308,0.00016047,0.00007560,-0.00002551,-0.00089915,0.00012601,
 0.00044590,0.00015384,-0.02248489,0.03704554,-0.08245533,0.02660630,-0
 .04613749,0.03704039,-0.03321579,-0.04019633,-0.00154889,-0.00494615,-
 0.00103534,-0.00031852,0.00064106,-0.00045406,0.00011083,-0.00077985,-
 0.00115313,-0.00001542,-0.00228216,-0.00133703,-0.00006907,-0.00497192
 ,0.00591131,-0.00063237,-0.18256410,-0.08799537,-0.00462574,0.03858372
 ,-0.00420941,0.00074381,0.66612708,-0.01043656,0.00004008,-0.00026992,
 0.00107395,-0.00402309,0.00023191,-0.00099533,0.00092207,-0.00012811,-
 0.00020660,0.00040057,-0.00002557,0.00013255,0.00100468,-0.00004672,0.
 00085120,0.00100794,0.00006634,-0.06051151,-0.23113859,0.00197745,-0.0
 1565413,-0.11400420,0.00418263,-0.00393765,0.41840700,-0.00263220,-0.0
 0226083,0.01171114,-0.00039520,0.00009090,0.00034825,0.00013053,-0.000
 09190,-0.00075643,-0.00004986,-0.00008890,0.00007762,-0.00012250,-0.00
 014500,-0.00052585,-0.00044818,0.00040479,0.00122081,-0.00562546,0.000
 13968,-0.06592316,0.00116017,0.00494787,0.02965003,0.04211253,-0.01407
 931,0.04198812,-0.00036547,-0.00016996,0.00005753,0.00340309,-0.005998
 62,-0.00010416,-0.03932621,-0.00962697,-0.00246095,-0.29023393,0.01778
 797,-0.01592962,-0.03128239,0.01696210,-0.00288963,0.00518695,0.004416
 50,-0.00035903,-0.00190870,-0.00029925,-0.00001917,0.00085865,-0.00008
 373,0.00004850,0.00076057,0.00034939,0.00003184,1.62843783,-0.00026704
 ,-0.00317409,0.00005640,-0.00528814,-0.00391533,0.00008783,-0.02727471
 ,0.01047453,-0.00210778,0.01780280,-0.08907871,0.00218348,0.03454557,0
 .00282451,0.00230608,0.00368650,-0.00565784,0.00074907,0.00018011,-0.0
 0053011,-0.00002178,0.00000071,0.00036178,-0.00000659,-0.00009055,0.00
 022291,-0.00001073,-0.13208785,0.13551019,0.00006107,0.00006290,-0.001
 13109,-0.00013004,0.00004031,0.00821225,-0.00181885,-0.00092712,0.0026
 0617,-0.01593015,0.00218249,-0.06294648,-0.00352935,0.00112970,0.00240
 823,-0.00033251,0.00079789,0.00810055,-0.00003660,-0.00005384,-0.00146
 031,0.00004542,-0.00001225,0.00018286,0.00004785,0.00001871,0.00009708
 ,0.10788571,-0.01057782,0.09526146,0.00010193,-0.00000277,-0.00001516,
 -0.00170178,0.00025705,-0.00002310,0.00429507,0.00699103,-0.00005314,-
 0.01672282,0.00334531,-0.00238493,0.00249544,-0.00798574,0.00037109,-0
 .00188061,0.00025360,-0.00003504,0.00181513,0.00009644,0.00010409,-0.0
 0088839,0.00023533,-0.00006805,-0.00077560,-0.00033840,-0.00004011,-1.
 27729247,0.10890305,-0.08691535,1.29143404,0.00006961,0.00081372,-0.00
 001294,0.00115146,0.00085823,-0.00000864,0.00204138,-0.00313298,0.0002
 9740,0.00338227,0.02165659,0.00006073,-0.00304084,-0.00139146,-0.00010
 582,-0.00066932,0.00101950,-0.00013626,-0.00017000,0.00004220,-0.00000
 538,0.00003553,-0.00001884,0.00000310,0.00011720,0.00004212,0.00000660
 ,0.10889036,-0.04799645,0.00767198,-0.11190801,0.02789977,-0.00001779,
 -0.00001779,0.00032941,-0.00005563,-0.00006848,-0.00149766,0.00012693,
 0.00062854,0.00127309,-0.00238629,0.00005826,0.01694478,0.00019117,-0.
 00043663,0.00132027,-0.00000145,-0.00007451,-0.00149224,0.00011378,0.0
 0001244,0.00021407,-0.00006079,0.00001646,-0.00000378,-0.00005669,-0.0
 0002388,0.00000517,-0.08691488,0.00767282,-0.04345121,0.08916344,-0.00
 779130,0.02577853,0.01192173,0.01043479,0.00014916,-0.15496740,-0.1382
 7982,-0.00260022,-0.01209048,-0.02540730,-0.00020775,-0.00470675,0.001
 15447,-0.00086811,-0.00073045,0.00094951,-0.00001806,-0.00059289,0.003
 51138,-0.00060880,0.00174396,0.00095234,0.00035983,-0.00001640,-0.0008
 4152,-0.00001307,-0.00419657,0.00059309,-0.00031514,-0.00060167,-0.001
 26887,-0.00000774,-0.00025877,0.00026586,-0.00001783,0.16280118,-0.017
 56188,-0.01786636,-0.00037871,-0.13639339,-0.25365339,-0.00138437,0.00
 398399,0.00770435,0.00016203,0.00174078,0.00142379,0.00034268,0.000852
 64,0.00004741,0.00001978,0.00367901,-0.00362371,0.00061801,-0.00220066
 ,-0.00209007,-0.00022225,0.00024891,0.00096605,0.00000467,-0.00030034,
 0.00133485,-0.00006168,0.00018278,0.00041203,0.00000467,0.00010577,-0.
 00013320,0.00000694,0.14696552,0.26518674,0.00116781,0.00149422,0.0040
 4152,-0.00266891,-0.00151045,-0.04102439,-0.00127704,-0.00180431,0.004
 81205,-0.00088946,0.00030343,0.00757089,-0.00001456,0.00002627,-0.0009
 7877,-0.00061489,0.00060682,0.00653427,0.00047449,-0.00001132,-0.00412
 048,-0.00005271,-0.00006831,0.00063547,-0.00028265,-0.00000190,0.00017
 314,-0.00006056,-0.00009245,0.00020350,-0.00001201,0.00001765,-0.00013
 830,0.00372632,0.00117277,0.02738525,-0.00555698,-0.00055120,-0.000855
 48,-0.00755448,0.02868002,-0.00184749,-0.11239639,0.11322019,-0.008999
 59,0.01071502,-0.01833287,0.00110892,-0.00179769,-0.00336031,-0.000427
 11,-0.00102195,-0.00079465,0.00001987,0.00088296,0.00149641,-0.0000112
 4,-0.00093097,0.00033865,-0.00005839,-0.00023075,-0.00027804,-0.000006
 15,0.00146352,-0.00076564,0.00040559,-0.00023682,0.00040970,-0.0000600
 4,0.00104345,-0.00037088,0.00037002,0.11501117,-0.00031386,0.00164297,
 0.00019317,-0.00114880,0.00323876,-0.00003230,0.11123327,-0.29494783,0
 .01673759,0.01247941,-0.01758682,0.00162429,-0.00398896,-0.00220505,0.
 00004672,-0.00067850,0.00036740,-0.00009103,-0.00029789,0.00014089,-0.
 00001645,0.00001965,-0.00002625,-0.00000653,0.00009079,0.00002168,0.00
 000574,0.00088708,0.00010121,-0.00009651,-0.00042543,0.00022911,-0.000
 02087,0.00031807,0.00053934,-0.00015426,-0.11889838,0.30930884,-0.0008
 6408,0.00017731,0.00746529,-0.00076221,0.00196329,0.00434098,-0.008927
 31,0.01687053,-0.04066027,-0.00001214,-0.00043711,0.00412481,-0.000404
 25,0.00008878,0.00638377,0.00001565,-0.00009880,-0.00088221,0.00005406
 ,0.00010359,0.00023660,-0.00004681,0.00001481,-0.00024569,-0.00001957,
 -0.00001894,0.00001184,0.00034545,-0.00020708,-0.00415195,-0.00002966,
 0.00003500,0.00043460,0.00034494,-0.00020036,-0.00425520,0.01025400,-0
 .01824760,0.02775198,-0.00514106,0.00167023,-0.00092236,-0.00074389,0.
 00100517,-0.00002549,-0.00051359,0.00304666,-0.00057727,0.01084786,0.0
 1326885,-0.00003013,-0.15720918,-0.13848164,-0.00281993,-0.01202817,-0
 .02604365,-0.00016118,0.00049075,-0.00164722,0.00008324,-0.00022603,0.
 00035903,-0.00003284,-0.00080815,-0.00005720,-0.00004314,0.00141756,0.
 00052965,0.00035068,-0.00022067,-0.00033275,-0.00003106,0.00001836,-0.
 00010282,0.00007822,0.00055858,0.00066482,-0.00001552,0.16251909,0.001
 50078,0.00127385,0.00033557,0.00083901,0.00010455,0.00001923,0.0036696
 3,-0.00340359,0.00060431,-0.01745563,-0.01770400,-0.00037515,-0.136490
 14,-0.25118432,-0.00143855,0.00369709,0.00765149,0.00013429,0.00017845
 ,0.00034147,0.00000469,-0.00004918,-0.00004102,0.00000074,0.00013168,0
 .00000938,0.00000366,-0.00111057,0.00016320,-0.00022986,0.00050607,0.0
 0021098,0.00004163,-0.00007191,0.00000575,-0.00004485,-0.00090377,-0.0
 0080151,-0.00001570,0.14591200,0.26283852,-0.00091617,0.00034689,0.007
 66332,-0.00001944,0.00003035,-0.00091196,-0.00059995,0.00056263,0.0063
 9771,0.00108773,0.00168036,0.00409383,-0.00289239,-0.00157179,-0.03988
 313,-0.00124325,-0.00185539,0.00452889,0.00001682,-0.00011744,0.000147
 51,-0.00001799,0.00002804,0.00006748,-0.00005002,-0.00000897,-0.000135
 07,0.00041036,-0.00012012,-0.00408051,-0.00006158,-0.00001449,0.000421
 05,0.00007709,-0.00004692,-0.00108800,0.00004155,0.00008925,0.00042849
 ,0.00379005,0.00116346,0.02672634,0.01306005,-0.01531386,0.00110058,-0
 .00216130,-0.00362640,-0.00043507,-0.00094769,-0.00076249,0.00003038,-
 0.00493985,-0.00010763,-0.00084091,-0.00757042,0.02744026,-0.00182999,
 -0.11298385,0.11375417,-0.00890619,0.00053114,-0.00250780,0.00040063,-
 0.00197079,0.00092732,-0.00014910,0.00055234,0.00149359,-0.00002523,-0
 .00038335,0.00136487,-0.00008691,-0.00030647,-0.00022522,-0.00000352,0
 .00063203,-0.00100332,0.00005453,0.00003570,0.00007053,0.00006783,0.00
 108437,-0.00038772,0.00037767,0.11547300,0.01200007,-0.01901517,0.0016
 7429,-0.00388319,-0.00235307,0.00005554,-0.00067527,0.00033833,-0.0000
 9340,-0.00078073,0.00168663,0.00016612,-0.00150260,0.00410676,-0.00007
 312,0.11216206,-0.29266301,0.01663375,0.00188298,-0.00268099,0.0000745
 6,0.00097217,0.00222208,-0.00002476,0.00004295,0.00073939,-0.00001978,
 -0.00004622,0.00025209,-0.00000595,-0.00010153,-0.00008179,-0.00000860
 ,0.00068202,-0.00083878,0.00008934,0.00009290,-0.00002387,-0.00002990,
 0.00031795,0.00051263,-0.00015564,-0.12102112,0.30786388,0.00010684,-0
 .00015296,0.00495042,-0.00042572,0.00007271,0.00628292,0.00002719,-0.0
 0009924,-0.00098175,-0.00081643,0.00021118,0.00762585,-0.00077692,0.00
 186321,0.00474035,-0.00884830,0.01674016,-0.04292385,0.00024084,-0.000
 21916,-0.00406933,-0.00015071,-0.00002779,-0.00025551,0.00002757,0.000
 07727,0.00011598,-0.00003558,0.00008846,0.00016797,-0.00000802,-0.0000
 1687,-0.00013129,-0.00000679,-0.00002342,0.00036295,0.00006702,-0.0000
 3140,-0.00101095,0.00035200,-0.00020286,-0.00431903,0.01026149,-0.0182
 8216,0.02925743,0.00123828,-0.00341015,-0.00009883,0.00094464,-0.00028
 890,0.00008447,0.00001442,0.00014432,-0.00000839,0.00016423,0.00010126
 ,0.00000260,0.00013042,-0.00051069,0.00005462,-0.00073231,0.00039503,-
 0.00009709,-0.03734331,-0.00506787,-0.00259032,0.00403860,0.00886506,0
 .00033109,-0.47189374,0.08792163,-0.03373191,-0.00013399,0.00002952,-0
 .00000883,0.00014278,-0.00001723,0.00001065,0.00000068,0.00017388,0.00
 000140,0.00001562,-0.00001181,-0.00000040,-0.00004581,0.00003421,-0.00
 000048,-0.00010491,-0.00014244,-0.00001447,0.50356441,-0.00194436,-0.0
 0568494,0.00024314,0.00067389,-0.00047930,0.00005667,0.00016254,0.0003
 2405,0.00000132,0.00017211,-0.00012982,0.00001880,-0.00023805,-0.00041
 542,-0.00001567,-0.00114191,0.00060855,-0.00008019,-0.05117124,0.01260
 409,-0.00373066,0.00741639,-0.00077872,0.00031580,0.13441527,-0.074986
 80,0.01115888,-0.00005301,0.00003008,-0.00000530,0.00006821,-0.0000175
 1,0.00000494,0.00004237,0.00058519,-0.00002263,0.00001788,0.00000112,0
 .00000217,-0.00010910,0.00002260,-0.00001020,-0.00009516,-0.00006511,0
 .00000288,-0.08821583,0.06838195,-0.00015238,0.00014509,0.00455661,0.0
 0004941,-0.00000773,-0.00015723,-0.00000905,0.00000009,0.00006077,0.,0
 .00001405,0.00006989,0.00004470,-0.00003390,-0.00040420,-0.00004117,0.
 00002262,0.00050076,-0.00091245,-0.00064698,0.00410066,0.00038368,0.00
 041280,-0.00572158,-0.03542363,0.00804900,-0.01805866,-0.00000582,0.00
 000022,-0.00001852,0.00000754,-0.00000077,-0.00000650,0.00000618,-0.00
 001384,-0.00011389,-0.00000148,0.00000019,0.00002792,0.00000474,-0.000
 00062,-0.00005692,-0.00001619,-0.00000029,0.00018783,0.03606591,-0.007
 93994,0.01503307\\0.00010269,0.00004882,0.00000656,0.00003635,0.000072
 73,-0.00000008,-0.00006331,0.00002257,-0.00000518,-0.00021049,0.000085
 22,-0.00001716,-0.00000892,-0.00007814,0.00000214,0.00000141,-0.000026
 84,0.00000117,-0.00011127,-0.00028721,-0.00000185,0.00000579,0.0001192
 5,-0.00000207,0.00016306,0.00009239,0.00000897,0.00012465,-0.00005115,
 0.00001022,0.00001977,0.00000881,0.00000099,-0.00001208,-0.00004935,0.
 00000100,-0.00000231,-0.00002369,0.00000071,0.00000714,0.00002648,-0.0
 0000050,0.00001955,0.00001834,0.00000066,-0.00007203,0.00002177,-0.000
 00558\\\@
 The archive entry for this job was punched.


 The cat could very well be man's best friend
 but would never stoop to admitting it.
                               -- Doug Larson
 Job cpu time:       0 days 13 hours 42 minutes 15.3 seconds.
 Elapsed time:       0 days  0 hours 41 minutes  7.9 seconds.
 File lengths (MBytes):  RWF=    443 Int=      0 D2E=      0 Chk=     31 Scr=      1
 Normal termination of Gaussian 16 at Thu Apr 27 12:35:54 2023.
