 Entering Gaussian System, Link 0=g16
 Initial command:
 /usr/local/gaussian16c01/g16/l1.exe "/scr/akj/Gau-51086.inp" -scrdir="/scr/akj/"
 Entering Link 1 = /usr/local/gaussian16c01/g16/l1.exe PID=     51087.
  
 Copyright (c) 1988-2019, Gaussian, Inc.  All Rights Reserved.
  
 This is part of the Gaussian(R) 16 program.  It is based on
 the Gaussian(R) 09 system (copyright 2009, Gaussian, Inc.),
 the Gaussian(R) 03 system (copyright 2003, Gaussian, Inc.),
 the Gaussian(R) 98 system (copyright 1998, Gaussian, Inc.),
 the Gaussian(R) 94 system (copyright 1995, Gaussian, Inc.),
 the Gaussian 92(TM) system (copyright 1992, Gaussian, Inc.),
 the Gaussian 90(TM) system (copyright 1990, Gaussian, Inc.),
 the Gaussian 88(TM) system (copyright 1988, Gaussian, Inc.),
 the Gaussian 86(TM) system (copyright 1986, Carnegie Mellon
 University), and the Gaussian 82(TM) system (copyright 1983,
 Carnegie Mellon University). Gaussian is a federally registered
 trademark of Gaussian, Inc.
  
 This software contains proprietary and confidential information,
 including trade secrets, belonging to Gaussian, Inc.
  
 This software is provided under written license and may be
 used, copied, transmitted, or stored only in accord with that
 written license.
  
 The following legend is applicable only to US Government
 contracts under FAR:
  
                    RESTRICTED RIGHTS LEGEND
  
 Use, reproduction and disclosure by the US Government is
 subject to restrictions as set forth in subparagraphs (a)
 and (c) of the Commercial Computer Software - Restricted
 Rights clause in FAR 52.227-19.
  
 Gaussian, Inc.
 340 Quinnipiac St., Bldg. 40, Wallingford CT 06492
  
  
 ---------------------------------------------------------------
 Warning -- This program may not be used in any manner that
 competes with the business of Gaussian, Inc. or will provide
 assistance to any competitor of Gaussian, Inc.  The licensee
 of this program is prohibited from giving any competitor of
 Gaussian, Inc. access to this program.  By using this program,
 the user acknowledges that Gaussian, Inc. is engaged in the
 business of creating and licensing software in the field of
 computational chemistry and represents and warrants to the
 licensee that it is not a competitor of Gaussian, Inc. and that
 it will not use this program in any manner prohibited above.
 ---------------------------------------------------------------
  

 Cite this work as:
 Gaussian 16, Revision C.01,
 M. J. Frisch, G. W. Trucks, H. B. Schlegel, G. E. Scuseria, 
 M. A. Robb, J. R. Cheeseman, G. Scalmani, V. Barone, 
 G. A. Petersson, H. Nakatsuji, X. Li, M. Caricato, A. V. Marenich, 
 J. Bloino, B. G. Janesko, R. Gomperts, B. Mennucci, H. P. Hratchian, 
 J. V. Ortiz, A. F. Izmaylov, J. L. Sonnenberg, D. Williams-Young, 
 F. Ding, F. Lipparini, F. Egidi, J. Goings, B. Peng, A. Petrone, 
 T. Henderson, D. Ranasinghe, V. G. Zakrzewski, J. Gao, N. Rega, 
 G. Zheng, W. Liang, M. Hada, M. Ehara, K. Toyota, R. Fukuda, 
 J. Hasegawa, M. Ishida, T. Nakajima, Y. Honda, O. Kitao, H. Nakai, 
 T. Vreven, K. Throssell, J. A. Montgomery, Jr., J. E. Peralta, 
 F. Ogliaro, M. J. Bearpark, J. J. Heyd, E. N. Brothers, K. N. Kudin, 
 V. N. Staroverov, T. A. Keith, R. Kobayashi, J. Normand, 
 K. Raghavachari, A. P. Rendell, J. C. Burant, S. S. Iyengar, 
 J. Tomasi, M. Cossi, J. M. Millam, M. Klene, C. Adamo, R. Cammi, 
 J. W. Ochterski, R. L. Martin, K. Morokuma, O. Farkas, 
 J. B. Foresman, and D. J. Fox, Gaussian, Inc., Wallingford CT, 2019.
 
 ******************************************
 Gaussian 16:  ES64L-G16RevC.01  3-Jul-2019
                27-Apr-2023 
 ******************************************
 %nprocshared=20
 Will use up to   20 processors via shared memory.
 %mem=10000MW
 %chk=CYH-217-A_eq00002.chk
 ------------------------------------
 # opt freq M062x/aug-cc-pvtz pop=nbo
 ------------------------------------
 1/18=20,19=15,26=3,38=1/1,3;
 2/9=110,12=2,17=6,18=5,40=1/2;
 3/5=16,6=1,7=10,11=2,25=1,30=1,71=1,74=-55/1,2,3;
 4//1;
 5/5=2,38=5/2;
 6/7=2,8=2,9=2,10=2,28=1,40=1/1,7;
 7//1,2,3,16;
 1/18=20,19=15,26=3/3(2);
 2/9=110/2;
 99//99;
 2/9=110/2;
 3/5=16,6=1,7=10,11=2,25=1,30=1,71=1,74=-55/1,2,3;
 4/5=5,16=3,69=1/1;
 5/5=2,38=5/2;
 7//1,2,3,16;
 1/18=20,19=15,26=3/3(-5);
 2/9=110/2;
 6/7=2,8=2,9=2,10=2,19=2,28=1,40=1/1,7;
 99/9=1/99;
 -----------------
 CYH-217-A_eq00002
 -----------------
 Symbolic Z-matrix:
 Charge =  0 Multiplicity = 1
 C                    -0.91439  -0.12866  -0.10802 
 C                    -0.17731  -1.20704  -0.59719 
 C                     1.19784  -1.20736  -0.49295 
 C                     1.85187  -0.12832   0.1028 
 C                     1.10961   0.94879   0.59135 
 C                    -0.26577   0.95181   0.48791 
 C                    -2.39121  -0.17101  -0.24242 
 O                    -3.00314  -1.07812  -0.74725 
 O                    -3.00125   0.91212   0.25783 
 C                     3.31863  -0.11632   0.22 
 O                     3.96703   0.76741   0.71626 
 H                    -0.70705  -2.0296   -1.05336 
 H                     1.77357  -2.03986  -0.87067 
 H                     1.63792   1.77235   1.04812 
 H                    -0.84613   1.78018   0.86245 
 H                    -3.96123   0.83169   0.14398 
 H                     3.80599  -1.01877  -0.19976 
 

 GradGradGradGradGradGradGradGradGradGradGradGradGradGradGradGradGradGrad
 Berny optimization.
 Initialization pass.
                           ----------------------------
                           !    Initial Parameters    !
                           ! (Angstroms and Degrees)  !
 --------------------------                            --------------------------
 ! Name  Definition              Value          Derivative Info.                !
 --------------------------------------------------------------------------------
 ! R1    R(1,2)                  1.3948         estimate D2E/DX2                !
 ! R2    R(1,6)                  1.394          estimate D2E/DX2                !
 ! R3    R(1,7)                  1.4835         estimate D2E/DX2                !
 ! R4    R(2,3)                  1.3791         estimate D2E/DX2                !
 ! R5    R(2,12)                 1.0795         estimate D2E/DX2                !
 ! R6    R(3,4)                  1.3954         estimate D2E/DX2                !
 ! R7    R(3,13)                 1.0804         estimate D2E/DX2                !
 ! R8    R(4,5)                  1.3964         estimate D2E/DX2                !
 ! R9    R(4,10)                 1.4715         estimate D2E/DX2                !
 ! R10   R(5,6)                  1.3793         estimate D2E/DX2                !
 ! R11   R(5,14)                 1.0798         estimate D2E/DX2                !
 ! R12   R(6,15)                 1.0786         estimate D2E/DX2                !
 ! R13   R(7,8)                  1.2051         estimate D2E/DX2                !
 ! R14   R(7,9)                  1.34           estimate D2E/DX2                !
 ! R15   R(9,16)                 0.97           estimate D2E/DX2                !
 ! R16   R(10,11)                1.2032         estimate D2E/DX2                !
 ! R17   R(10,17)                1.1082         estimate D2E/DX2                !
 ! A1    A(2,1,6)              120.2184         estimate D2E/DX2                !
 ! A2    A(2,1,7)              118.1781         estimate D2E/DX2                !
 ! A3    A(6,1,7)              121.6036         estimate D2E/DX2                !
 ! A4    A(1,2,3)              120.0404         estimate D2E/DX2                !
 ! A5    A(1,2,12)             118.5546         estimate D2E/DX2                !
 ! A6    A(3,2,12)             121.405          estimate D2E/DX2                !
 ! A7    A(2,3,4)              119.9649         estimate D2E/DX2                !
 ! A8    A(2,3,13)             120.3403         estimate D2E/DX2                !
 ! A9    A(4,3,13)             119.6948         estimate D2E/DX2                !
 ! A10   A(3,4,5)              119.7839         estimate D2E/DX2                !
 ! A11   A(3,4,10)             120.4997         estimate D2E/DX2                !
 ! A12   A(5,4,10)             119.7164         estimate D2E/DX2                !
 ! A13   A(4,5,6)              120.3664         estimate D2E/DX2                !
 ! A14   A(4,5,14)             118.4397         estimate D2E/DX2                !
 ! A15   A(6,5,14)             121.1939         estimate D2E/DX2                !
 ! A16   A(1,6,5)              119.626          estimate D2E/DX2                !
 ! A17   A(1,6,15)             119.5631         estimate D2E/DX2                !
 ! A18   A(5,6,15)             120.811          estimate D2E/DX2                !
 ! A19   A(1,7,8)              124.3985         estimate D2E/DX2                !
 ! A20   A(1,7,9)              113.347          estimate D2E/DX2                !
 ! A21   A(8,7,9)              122.2546         estimate D2E/DX2                !
 ! A22   A(7,9,16)             109.8585         estimate D2E/DX2                !
 ! A23   A(4,10,11)            125.1705         estimate D2E/DX2                !
 ! A24   A(4,10,17)            113.675          estimate D2E/DX2                !
 ! A25   A(11,10,17)           121.1545         estimate D2E/DX2                !
 ! D1    D(6,1,2,3)             -0.022          estimate D2E/DX2                !
 ! D2    D(6,1,2,12)           179.9861         estimate D2E/DX2                !
 ! D3    D(7,1,2,3)            179.9661         estimate D2E/DX2                !
 ! D4    D(7,1,2,12)            -0.0259         estimate D2E/DX2                !
 ! D5    D(2,1,6,5)             -0.0017         estimate D2E/DX2                !
 ! D6    D(2,1,6,15)           179.9927         estimate D2E/DX2                !
 ! D7    D(7,1,6,5)           -179.9894         estimate D2E/DX2                !
 ! D8    D(7,1,6,15)             0.005          estimate D2E/DX2                !
 ! D9    D(2,1,7,8)              0.0452         estimate D2E/DX2                !
 ! D10   D(2,1,7,9)           -179.9569         estimate D2E/DX2                !
 ! D11   D(6,1,7,8)           -179.9669         estimate D2E/DX2                !
 ! D12   D(6,1,7,9)              0.031          estimate D2E/DX2                !
 ! D13   D(1,2,3,4)              0.0273         estimate D2E/DX2                !
 ! D14   D(1,2,3,13)          -179.9676         estimate D2E/DX2                !
 ! D15   D(12,2,3,4)          -179.981          estimate D2E/DX2                !
 ! D16   D(12,2,3,13)            0.0242         estimate D2E/DX2                !
 ! D17   D(2,3,4,5)             -0.0092         estimate D2E/DX2                !
 ! D18   D(2,3,4,10)          -179.9909         estimate D2E/DX2                !
 ! D19   D(13,3,4,5)           179.9857         estimate D2E/DX2                !
 ! D20   D(13,3,4,10)            0.004          estimate D2E/DX2                !
 ! D21   D(3,4,5,6)             -0.0146         estimate D2E/DX2                !
 ! D22   D(3,4,5,14)          -179.9919         estimate D2E/DX2                !
 ! D23   D(10,4,5,6)           179.9673         estimate D2E/DX2                !
 ! D24   D(10,4,5,14)           -0.01           estimate D2E/DX2                !
 ! D25   D(3,4,10,11)          179.9895         estimate D2E/DX2                !
 ! D26   D(3,4,10,17)           -0.0064         estimate D2E/DX2                !
 ! D27   D(5,4,10,11)            0.0077         estimate D2E/DX2                !
 ! D28   D(5,4,10,17)         -179.9882         estimate D2E/DX2                !
 ! D29   D(4,5,6,1)              0.0199         estimate D2E/DX2                !
 ! D30   D(4,5,6,15)          -179.9744         estimate D2E/DX2                !
 ! D31   D(14,5,6,1)           179.9966         estimate D2E/DX2                !
 ! D32   D(14,5,6,15)            0.0022         estimate D2E/DX2                !
 ! D33   D(1,7,9,16)          -179.9875         estimate D2E/DX2                !
 ! D34   D(8,7,9,16)             0.0105         estimate D2E/DX2                !
 --------------------------------------------------------------------------------
 Trust Radius=3.00D-01 FncErr=1.00D-07 GrdErr=1.00D-06 EigMax=2.50D+02 EigMin=1.00D-04
 Number of steps in this run=     86 maximum allowed number of steps=    102.
 GradGradGradGradGradGradGradGradGradGradGradGradGradGradGradGradGradGrad

                          Input orientation:                          
 ---------------------------------------------------------------------
 Center     Atomic      Atomic             Coordinates (Angstroms)
 Number     Number       Type             X           Y           Z
 ---------------------------------------------------------------------
      1          6           0       -0.914385   -0.128657   -0.108023
      2          6           0       -0.177307   -1.207038   -0.597187
      3          6           0        1.197840   -1.207363   -0.492954
      4          6           0        1.851875   -0.128321    0.102800
      5          6           0        1.109607    0.948788    0.591354
      6          6           0       -0.265775    0.951812    0.487914
      7          6           0       -2.391214   -0.171012   -0.242419
      8          8           0       -3.003139   -1.078125   -0.747250
      9          8           0       -3.001247    0.912119    0.257828
     10          6           0        3.318631   -0.116316    0.220002
     11          8           0        3.967029    0.767413    0.716260
     12          1           0       -0.707047   -2.029596   -1.053356
     13          1           0        1.773566   -2.039859   -0.870666
     14          1           0        1.637923    1.772352    1.048121
     15          1           0       -0.846127    1.780179    0.862454
     16          1           0       -3.961226    0.831693    0.143982
     17          1           0        3.805994   -1.018768   -0.199761
 ---------------------------------------------------------------------
                    Distance matrix (angstroms):
                    1          2          3          4          5
     1  C    0.000000
     2  C    1.394801   0.000000
     3  C    2.402764   1.379092   0.000000
     4  C    2.774282   2.402330   1.395354   0.000000
     5  C    2.397198   2.777834   2.415056   1.396356   0.000000
     6  C    1.394005   2.417830   2.786809   2.408202   1.379269
     7  C    1.483536   2.469938   3.744075   4.257323   3.768936
     8  O    2.381804   2.832748   4.210652   5.019548   4.776496
     9  O    2.360520   3.632701   4.763214   4.965817   4.124525
    10  C    4.245725   3.752206   2.489265   1.471480   2.480350
    11  O    5.030963   4.774842   3.609757   2.377509   2.865896
    12  H    2.133123   1.079499   2.149120   3.391110   3.856952
    13  H    3.385174   2.138759   1.080360   2.146566   3.392692
    14  H    3.385968   3.857313   3.383383   2.133533   1.079820
    15  H    2.142461   3.391362   3.865273   3.390967   2.142335
    16  H    3.204531   4.361628   5.583852   5.891983   5.091876
    17  H    4.804445   4.007502   2.631349   2.168645   3.430399
                    6          7          8          9         10
     6  C    0.000000
     7  C    2.512292   0.000000
     8  O    3.624836   1.205056   0.000000
     9  O    2.745419   1.339986   2.229631   0.000000
    10  C    3.749752   5.728800   6.467258   6.403122   0.000000
    11  O    4.242967   6.498227   7.357385   6.984839   1.203191
    12  H    3.385119   2.635976   2.504204   3.954270   4.635533
    13  H    3.867137   4.607893   4.874123   5.725951   2.697554
    14  H    2.147366   4.655760   5.734809   4.783980   2.660381
    15  H    1.078555   2.723084   3.926035   2.400759   4.621109
    16  H    3.713365   1.902541   2.315088   0.970046   7.341718
    17  H    4.575519   6.255069   6.831365   7.090574   1.108215
                   11         12         13         14         15
    11  O    0.000000
    12  H    5.727285   0.000000
    13  H    3.900050   2.487353   0.000000
    14  H    2.558274   4.936588   4.270023   0.000000
    15  H    4.920725   4.266622   4.945623   2.490991   0.000000
    16  H    7.949142   4.495584   6.493317   5.749154   3.334617
    17  H    2.013819   4.702971   2.371393   3.748078   5.532145
                   16         17
    16  H    0.000000
    17  H    7.992000   0.000000
 Stoichiometry    C8H6O3
 Framework group  C1[X(C8H6O3)]
 Deg. of freedom    45
 Full point group                 C1      NOp   1
 Largest Abelian subgroup         C1      NOp   1
 Largest concise Abelian subgroup C1      NOp   1
                         Standard orientation:                         
 ---------------------------------------------------------------------
 Center     Atomic      Atomic             Coordinates (Angstroms)
 Number     Number       Type             X           Y           Z
 ---------------------------------------------------------------------
      1          6           0       -1.025750    0.050147   -0.000316
      2          6           0       -0.401859    1.297636   -0.000194
      3          6           0        0.974705    1.381106    0.000152
      4          6           0        1.743530    0.216665   -0.000195
      5          6           0        1.114353   -1.029908   -0.000699
      6          6           0       -0.262217   -1.116158   -0.000551
      7          6           0       -2.508702    0.008527    0.000083
      8          8           0       -3.217120    0.983362   -0.000275
      9          8           0       -3.005012   -1.236157    0.000852
     10          6           0        3.213079    0.292015    0.000369
     11          8           0        3.955586   -0.654744    0.000310
     12          1           0       -1.019102    2.183260   -0.000243
     13          1           0        1.462998    2.344821    0.000776
     14          1           0        1.730297   -1.916827   -0.000826
     15          1           0       -0.755653   -2.075221   -0.000523
     16          1           0       -3.974535   -1.204319    0.000883
     17          1           0        3.605526    1.328416    0.000949
 ---------------------------------------------------------------------
 Rotational constants (GHZ):           3.5925662           0.5784035           0.4981942
 Standard basis: Aug-CC-pVTZ (5D, 7F)
 There are   755 symmetry adapted cartesian basis functions of A   symmetry.
 There are   644 symmetry adapted basis functions of A   symmetry.
   644 basis functions,   954 primitive gaussians,   755 cartesian basis functions
    39 alpha electrons       39 beta electrons
       nuclear repulsion energy       549.0916775356 Hartrees.
 NAtoms=   17 NActive=   17 NUniq=   17 SFac= 1.00D+00 NAtFMM=   60 NAOKFM=F Big=F
 Integral buffers will be    131072 words long.
 Raffenetti 2 integral format.
 Two-electron integral symmetry is turned on.
 One-electron integrals computed using PRISM.
 NBasis=   644 RedAO= T EigKep=  1.20D-06  NBF=   644
 NBsUse=   641 1.00D-06 EigRej=  9.91D-07 NBFU=   641
 ExpMin= 2.53D-02 ExpMax= 1.53D+04 ExpMxC= 5.22D+02 IAcc=3 IRadAn=         5 AccDes= 0.00D+00
 Harris functional with IExCor= 1009 and IRadAn=       5 diagonalized for initial guess.
 HarFok:  IExCor= 1009 AccDes= 0.00D+00 IRadAn=         5 IDoV= 1 UseB2=F ITyADJ=14
 ICtDFT=  3500011 ScaDFX=  1.000000  1.000000  1.000000  1.000000
 FoFCou: FMM=F IPFlag=           0 FMFlag=      100000 FMFlg1=           0
         NFxFlg=           0 DoJE=T BraDBF=F KetDBF=T FulRan=T
         wScrn=  0.000000 ICntrl=       500 IOpCl=  0 I1Cent=   200000004 NGrid=           0
         NMat0=    1 NMatS0=      1 NMatT0=    0 NMatD0=    1 NMtDS0=    0 NMtDT0=    0
 Petite list used in FoFCou.
 Requested convergence on RMS density matrix=1.00D-08 within 128 cycles.
 Requested convergence on MAX density matrix=1.00D-06.
 Requested convergence on             energy=1.00D-06.
 No special actions if energy rises.
 SCF Done:  E(RM062X) =  -534.144825345     A.U. after   14 cycles
            NFock= 14  Conv=0.21D-08     -V/T= 2.0050

 **********************************************************************

            Population analysis using the SCF Density.

 **********************************************************************

 Orbital symmetries:
       Occupied  (A) (A) (A) (A) (A) (A) (A) (A) (A) (A) (A) (A)
                 (A) (A) (A) (A) (A) (A) (A) (A) (A) (A) (A) (A)
                 (A) (A) (A) (A) (A) (A) (A) (A) (A) (A) (A) (A)
                 (A) (A) (A)
       Virtual   (A) (A) (A) (A) (A) (A) (A) (A) (A) (A) (A) (A)
                 (A) (A) (A) (A) (A) (A) (A) (A) (A) (A) (A) (A)
                 (A) (A) (A) (A) (A) (A) (A) (A) (A) (A) (A) (A)
                 (A) (A) (A) (A) (A) (A) (A) (A) (A) (A) (A) (A)
                 (A) (A) (A) (A) (A) (A) (A) (A) (A) (A) (A) (A)
                 (A) (A) (A) (A) (A) (A) (A) (A) (A) (A) (A) (A)
                 (A) (A) (A) (A) (A) (A) (A) (A) (A) (A) (A) (A)
                 (A) (A) (A) (A) (A) (A) (A) (A) (A) (A) (A) (A)
                 (A) (A) (A) (A) (A) (A) (A) (A) (A) (A) (A) (A)
                 (A) (A) (A) (A) (A) (A) (A) (A) (A) (A) (A) (A)
                 (A) (A) (A) (A) (A) (A) (A) (A) (A) (A) (A) (A)
                 (A) (A) (A) (A) (A) (A) (A) (A) (A) (A) (A) (A)
                 (A) (A) (A) (A) (A) (A) (A) (A) (A) (A) (A) (A)
                 (A) (A) (A) (A) (A) (A) (A) (A) (A) (A) (A) (A)
                 (A) (A) (A) (A) (A) (A) (A) (A) (A) (A) (A) (A)
                 (A) (A) (A) (A) (A) (A) (A) (A) (A) (A) (A) (A)
                 (A) (A) (A) (A) (A) (A) (A) (A) (A) (A) (A) (A)
                 (A) (A) (A) (A) (A) (A) (A) (A) (A) (A) (A) (A)
                 (A) (A) (A) (A) (A) (A) (A) (A) (A) (A) (A) (A)
                 (A) (A) (A) (A) (A) (A) (A) (A) (A) (A) (A) (A)
                 (A) (A) (A) (A) (A) (A) (A) (A) (A) (A) (A) (A)
                 (A) (A) (A) (A) (A) (A) (A) (A) (A) (A) (A) (A)
                 (A) (A) (A) (A) (A) (A) (A) (A) (A) (A) (A) (A)
                 (A) (A) (A) (A) (A) (A) (A) (A) (A) (A) (A) (A)
                 (A) (A) (A) (A) (A) (A) (A) (A) (A) (A) (A) (A)
                 (A) (A) (A) (A) (A) (A) (A) (A) (A) (A) (A) (A)
                 (A) (A) (A) (A) (A) (A) (A) (A) (A) (A) (A) (A)
                 (A) (A) (A) (A) (A) (A) (A) (A) (A) (A) (A) (A)
                 (A) (A) (A) (A) (A) (A) (A) (A) (A) (A) (A) (A)
                 (A) (A) (A) (A) (A) (A) (A) (A) (A) (A) (A) (A)
                 (A) (A) (A) (A) (A) (A) (A) (A) (A) (A) (A) (A)
                 (A) (A) (A) (A) (A) (A) (A) (A) (A) (A) (A) (A)
                 (A) (A) (A) (A) (A) (A) (A) (A) (A) (A) (A) (A)
                 (A) (A) (A) (A) (A) (A) (A) (A) (A) (A) (A) (A)
                 (A) (A) (A) (A) (A) (A) (A) (A) (A) (A) (A) (A)
                 (A) (A) (A) (A) (A) (A) (A) (A) (A) (A) (A) (A)
                 (A) (A) (A) (A) (A) (A) (A) (A) (A) (A) (A) (A)
                 (A) (A) (A) (A) (A) (A) (A) (A) (A) (A) (A) (A)
                 (A) (A) (A) (A) (A) (A) (A) (A) (A) (A) (A) (A)
                 (A) (A) (A) (A) (A) (A) (A) (A) (A) (A) (A) (A)
                 (A) (A) (A) (A) (A) (A) (A) (A) (A) (A) (A) (A)
                 (A) (A) (A) (A) (A) (A) (A) (A) (A) (A) (A) (A)
                 (A) (A) (A) (A) (A) (A) (A) (A) (A) (A) (A) (A)
                 (A) (A) (A) (A) (A) (A) (A) (A) (A) (A) (A) (A)
                 (A) (A) (A) (A) (A) (A) (A) (A) (A) (A) (A) (A)
                 (A) (A) (A) (A) (A) (A) (A) (A) (A) (A) (A) (A)
                 (A) (A) (A) (A) (A) (A) (A) (A) (A) (A) (A) (A)
                 (A) (A) (A) (A) (A) (A) (A) (A) (A) (A) (A) (A)
                 (A) (A) (A) (A) (A) (A) (A) (A) (A) (A) (A) (A)
                 (A) (A) (A) (A) (A) (A) (A) (A) (A) (A) (A) (A)
                 (A) (A)
 The electronic state is 1-A.
 Alpha  occ. eigenvalues --  -19.68986 -19.64104 -19.63193 -10.69629 -10.64349
 Alpha  occ. eigenvalues --  -10.58551 -10.57746 -10.57665 -10.57372 -10.57348
 Alpha  occ. eigenvalues --  -10.57088  -1.25699  -1.19064  -1.15870  -1.00147
 Alpha  occ. eigenvalues --   -0.90631  -0.87878  -0.79907  -0.72926  -0.72361
 Alpha  occ. eigenvalues --   -0.67222  -0.63168  -0.60567  -0.58529  -0.55897
 Alpha  occ. eigenvalues --   -0.55689  -0.54446  -0.52274  -0.51902  -0.50277
 Alpha  occ. eigenvalues --   -0.50142  -0.46546  -0.45659  -0.42875  -0.41703
 Alpha  occ. eigenvalues --   -0.37732  -0.34975  -0.34315  -0.33769
 Alpha virt. eigenvalues --   -0.06806  -0.01122  -0.00786  -0.00328   0.00746
 Alpha virt. eigenvalues --    0.01504   0.01685   0.02692   0.03056   0.03520
 Alpha virt. eigenvalues --    0.03812   0.04167   0.05297   0.05909   0.06590
 Alpha virt. eigenvalues --    0.07659   0.07787   0.07850   0.07890   0.08443
 Alpha virt. eigenvalues --    0.09166   0.09182   0.09770   0.10007   0.10209
 Alpha virt. eigenvalues --    0.10590   0.10930   0.11093   0.11371   0.11944
 Alpha virt. eigenvalues --    0.13416   0.13724   0.13867   0.14862   0.15091
 Alpha virt. eigenvalues --    0.15670   0.16200   0.17150   0.18628   0.19059
 Alpha virt. eigenvalues --    0.19275   0.19523   0.19590   0.19643   0.19958
 Alpha virt. eigenvalues --    0.20181   0.20766   0.21131   0.22011   0.23056
 Alpha virt. eigenvalues --    0.23154   0.23167   0.23656   0.23967   0.24203
 Alpha virt. eigenvalues --    0.24814   0.25375   0.25761   0.26617   0.26991
 Alpha virt. eigenvalues --    0.27321   0.28189   0.28411   0.29008   0.29744
 Alpha virt. eigenvalues --    0.30354   0.30553   0.31327   0.31503   0.31770
 Alpha virt. eigenvalues --    0.32932   0.33240   0.33448   0.33739   0.34107
 Alpha virt. eigenvalues --    0.34349   0.34677   0.35406   0.35937   0.36234
 Alpha virt. eigenvalues --    0.36571   0.36848   0.37817   0.38023   0.38463
 Alpha virt. eigenvalues --    0.38887   0.40029   0.40139   0.40195   0.40701
 Alpha virt. eigenvalues --    0.41278   0.42087   0.42291   0.42679   0.43868
 Alpha virt. eigenvalues --    0.44130   0.44805   0.45412   0.46007   0.46344
 Alpha virt. eigenvalues --    0.47006   0.47115   0.47264   0.48117   0.50068
 Alpha virt. eigenvalues --    0.50467   0.52262   0.52468   0.53508   0.54083
 Alpha virt. eigenvalues --    0.54358   0.54368   0.54653   0.54759   0.56293
 Alpha virt. eigenvalues --    0.57279   0.57882   0.58931   0.59055   0.59977
 Alpha virt. eigenvalues --    0.60110   0.60820   0.61837   0.62148   0.63261
 Alpha virt. eigenvalues --    0.64052   0.65048   0.65162   0.65467   0.66599
 Alpha virt. eigenvalues --    0.66845   0.67151   0.67236   0.69935   0.70399
 Alpha virt. eigenvalues --    0.71287   0.71290   0.71987   0.72837   0.73139
 Alpha virt. eigenvalues --    0.73362   0.74199   0.75236   0.75491   0.75566
 Alpha virt. eigenvalues --    0.76771   0.77009   0.77440   0.77661   0.78277
 Alpha virt. eigenvalues --    0.78530   0.78772   0.79074   0.79320   0.79638
 Alpha virt. eigenvalues --    0.80893   0.81519   0.81596   0.83072   0.83882
 Alpha virt. eigenvalues --    0.84161   0.84906   0.85524   0.85577   0.86562
 Alpha virt. eigenvalues --    0.86962   0.88715   0.89449   0.89548   0.90438
 Alpha virt. eigenvalues --    0.90774   0.91047   0.91780   0.92339   0.92938
 Alpha virt. eigenvalues --    0.93720   0.94234   0.94512   0.94728   0.95316
 Alpha virt. eigenvalues --    0.95647   0.96598   0.96697   0.97524   0.98584
 Alpha virt. eigenvalues --    0.98747   0.99523   0.99825   1.00430   1.00890
 Alpha virt. eigenvalues --    1.01460   1.02726   1.02827   1.03409   1.03875
 Alpha virt. eigenvalues --    1.04062   1.04330   1.05064   1.06442   1.07009
 Alpha virt. eigenvalues --    1.07753   1.08373   1.08663   1.09481   1.10380
 Alpha virt. eigenvalues --    1.11081   1.11755   1.12897   1.13364   1.14220
 Alpha virt. eigenvalues --    1.14876   1.16131   1.16569   1.17656   1.19336
 Alpha virt. eigenvalues --    1.19594   1.20428   1.21483   1.22165   1.23229
 Alpha virt. eigenvalues --    1.23661   1.24385   1.27161   1.27397   1.27622
 Alpha virt. eigenvalues --    1.29053   1.30327   1.30759   1.32034   1.32085
 Alpha virt. eigenvalues --    1.33027   1.33707   1.34114   1.35281   1.36192
 Alpha virt. eigenvalues --    1.36659   1.37189   1.38162   1.41498   1.42014
 Alpha virt. eigenvalues --    1.42537   1.43695   1.45141   1.45679   1.46106
 Alpha virt. eigenvalues --    1.46180   1.47175   1.47685   1.49463   1.49686
 Alpha virt. eigenvalues --    1.51099   1.52567   1.54135   1.55205   1.55720
 Alpha virt. eigenvalues --    1.57618   1.58935   1.59369   1.59377   1.61988
 Alpha virt. eigenvalues --    1.62587   1.62708   1.62918   1.63963   1.64404
 Alpha virt. eigenvalues --    1.65250   1.67398   1.67974   1.68669   1.69165
 Alpha virt. eigenvalues --    1.69594   1.71546   1.71746   1.71835   1.72465
 Alpha virt. eigenvalues --    1.74045   1.75384   1.75565   1.78352   1.78466
 Alpha virt. eigenvalues --    1.79227   1.80055   1.82300   1.82450   1.84804
 Alpha virt. eigenvalues --    1.85030   1.85416   1.86521   1.87647   1.88180
 Alpha virt. eigenvalues --    1.89249   1.90018   1.90465   1.92062   1.92747
 Alpha virt. eigenvalues --    1.93548   1.94195   1.97302   1.97536   1.97972
 Alpha virt. eigenvalues --    1.99823   2.01600   2.02791   2.03296   2.04940
 Alpha virt. eigenvalues --    2.05789   2.07696   2.09479   2.10835   2.12410
 Alpha virt. eigenvalues --    2.13566   2.14405   2.16403   2.17568   2.18413
 Alpha virt. eigenvalues --    2.18861   2.20227   2.21547   2.22770   2.24845
 Alpha virt. eigenvalues --    2.26013   2.26287   2.28047   2.28459   2.29038
 Alpha virt. eigenvalues --    2.31122   2.31271   2.32055   2.35020   2.36669
 Alpha virt. eigenvalues --    2.36902   2.37226   2.37765   2.38788   2.40323
 Alpha virt. eigenvalues --    2.41520   2.42046   2.43774   2.47254   2.47375
 Alpha virt. eigenvalues --    2.49570   2.50303   2.52080   2.52912   2.53990
 Alpha virt. eigenvalues --    2.54714   2.55556   2.58279   2.59881   2.61469
 Alpha virt. eigenvalues --    2.64323   2.65721   2.68146   2.68837   2.69171
 Alpha virt. eigenvalues --    2.71087   2.71096   2.73221   2.76797   2.78974
 Alpha virt. eigenvalues --    2.79627   2.80478   2.83494   2.86275   2.88571
 Alpha virt. eigenvalues --    2.89384   2.90280   2.91158   2.94453   2.95243
 Alpha virt. eigenvalues --    2.96009   2.96962   2.97280   2.98677   3.00024
 Alpha virt. eigenvalues --    3.00952   3.02138   3.07055   3.08206   3.08501
 Alpha virt. eigenvalues --    3.08981   3.09022   3.11336   3.12819   3.12853
 Alpha virt. eigenvalues --    3.13640   3.14729   3.16318   3.17489   3.17979
 Alpha virt. eigenvalues --    3.19961   3.21024   3.22963   3.23076   3.23291
 Alpha virt. eigenvalues --    3.24645   3.24689   3.26003   3.28340   3.30337
 Alpha virt. eigenvalues --    3.30659   3.32240   3.33133   3.34541   3.34973
 Alpha virt. eigenvalues --    3.37414   3.41784   3.41827   3.43324   3.43539
 Alpha virt. eigenvalues --    3.45635   3.47707   3.47738   3.50249   3.50346
 Alpha virt. eigenvalues --    3.51397   3.53141   3.53196   3.54454   3.54971
 Alpha virt. eigenvalues --    3.56277   3.57001   3.59552   3.60711   3.60983
 Alpha virt. eigenvalues --    3.61078   3.61291   3.64289   3.64913   3.65974
 Alpha virt. eigenvalues --    3.67655   3.69066   3.71820   3.72162   3.72456
 Alpha virt. eigenvalues --    3.74192   3.74306   3.77879   3.78932   3.79981
 Alpha virt. eigenvalues --    3.81137   3.83287   3.84376   3.86488   3.87015
 Alpha virt. eigenvalues --    3.87959   3.88405   3.90681   3.91431   3.91775
 Alpha virt. eigenvalues --    3.92574   3.92947   3.93872   3.94623   3.96768
 Alpha virt. eigenvalues --    3.98954   4.00025   4.00109   4.00706   4.01921
 Alpha virt. eigenvalues --    4.03422   4.06705   4.08489   4.08743   4.10558
 Alpha virt. eigenvalues --    4.10763   4.11200   4.11397   4.12508   4.14936
 Alpha virt. eigenvalues --    4.17413   4.18427   4.19771   4.21669   4.23431
 Alpha virt. eigenvalues --    4.24470   4.25536   4.26450   4.26496   4.30571
 Alpha virt. eigenvalues --    4.31164   4.31792   4.34783   4.36110   4.39202
 Alpha virt. eigenvalues --    4.39936   4.42687   4.43228   4.49025   4.49207
 Alpha virt. eigenvalues --    4.49493   4.51564   4.52803   4.54007   4.56485
 Alpha virt. eigenvalues --    4.57564   4.60398   4.61058   4.62230   4.65881
 Alpha virt. eigenvalues --    4.67468   4.68227   4.70726   4.72454   4.74269
 Alpha virt. eigenvalues --    4.75298   4.76028   4.76668   4.78576   4.81590
 Alpha virt. eigenvalues --    4.83672   4.85330   4.86957   4.87740   4.90369
 Alpha virt. eigenvalues --    4.93894   4.95757   4.96329   4.96399   4.99526
 Alpha virt. eigenvalues --    5.02978   5.05502   5.06597   5.08421   5.10285
 Alpha virt. eigenvalues --    5.12564   5.18594   5.23633   5.26685   5.30987
 Alpha virt. eigenvalues --    5.32067   5.37352   5.38621   5.43001   5.49306
 Alpha virt. eigenvalues --    5.52383   5.53289   5.68102   5.70052   5.73659
 Alpha virt. eigenvalues --    5.81923   5.83634   5.89020   5.89619   5.94681
 Alpha virt. eigenvalues --    6.01002   6.05692   6.08701   6.10275   6.13617
 Alpha virt. eigenvalues --    6.20185   6.20848   6.22316   6.31000   6.33662
 Alpha virt. eigenvalues --    6.35694   6.38582   6.38681   6.43301   6.47857
 Alpha virt. eigenvalues --    6.49684   6.54914   6.56905   6.57802   6.63534
 Alpha virt. eigenvalues --    6.67034   6.69575   6.69702   6.74702   6.78310
 Alpha virt. eigenvalues --    6.80269   6.81647   6.83259   6.84505   6.86056
 Alpha virt. eigenvalues --    6.91608   7.04829   7.05551   7.10246   7.10623
 Alpha virt. eigenvalues --    7.12379   7.14456   7.25124   7.29103   7.31029
 Alpha virt. eigenvalues --    7.35332   7.36589   7.46655   7.58113   7.82034
 Alpha virt. eigenvalues --    8.04822  14.62994  15.08623  15.73698  16.33847
 Alpha virt. eigenvalues --   16.66088  17.55396  18.28194  18.86685  19.09575
 Alpha virt. eigenvalues --   19.53806  19.89457
          Condensed to atoms (all electrons):
               1          2          3          4          5          6
     1  C    6.243005  -0.341841   0.086656  -0.357690   0.079266  -0.433085
     2  C   -0.341841   7.585735  -0.342698   0.148513  -0.461959   0.137565
     3  C    0.086656  -0.342698   7.691377  -0.440356   0.363104  -0.485598
     4  C   -0.357690   0.148513  -0.440356   6.135670  -0.619075   0.200144
     5  C    0.079266  -0.461959   0.363104  -0.619075   7.625571  -0.129209
     6  C   -0.433085   0.137565  -0.485598   0.200144  -0.129209   7.425510
     7  C   -0.282145  -0.244953   0.026254  -0.024566   0.117137  -0.346320
     8  O   -0.090491   0.089912  -0.006092  -0.003077  -0.021248   0.042093
     9  O   -0.108164   0.027896  -0.001685  -0.006503   0.010183   0.003538
    10  C   -0.021506   0.136586  -0.524535  -0.113271  -0.423712   0.036329
    11  O    0.004044  -0.016403   0.077954   0.073831   0.042404  -0.005121
    12  H   -0.296493   0.422130  -0.377314   0.007592   0.028626   0.021480
    13  H    0.041869  -0.465996   0.554152  -0.159730   0.012667   0.007074
    14  H    0.068548   0.016184   0.010834  -0.272635   0.424815  -0.391330
    15  H   -0.229977  -0.007254   0.008632   0.056926  -0.415200   0.393285
    16  H    0.000590  -0.020256  -0.000350  -0.000984   0.001499  -0.007685
    17  H   -0.001698   0.008472  -0.042749  -0.169136   0.013752   0.006315
               7          8          9         10         11         12
     1  C   -0.282145  -0.090491  -0.108164  -0.021506   0.004044  -0.296493
     2  C   -0.244953   0.089912   0.027896   0.136586  -0.016403   0.422130
     3  C    0.026254  -0.006092  -0.001685  -0.524535   0.077954  -0.377314
     4  C   -0.024566  -0.003077  -0.006503  -0.113271   0.073831   0.007592
     5  C    0.117137  -0.021248   0.010183  -0.423712   0.042404   0.028626
     6  C   -0.346320   0.042093   0.003538   0.036329  -0.005121   0.021480
     7  C    6.137767  -0.141329   0.118535  -0.020431   0.002174   0.150582
     8  O   -0.141329   9.222622  -0.089109   0.001383  -0.000086  -0.001508
     9  O    0.118535  -0.089109   8.490983   0.001045   0.000024   0.000217
    10  C   -0.020431   0.001383   0.001045   6.750982  -0.153619  -0.007865
    11  O    0.002174  -0.000086   0.000024  -0.153619   9.131481  -0.000580
    12  H    0.150582  -0.001508   0.000217  -0.007865  -0.000580   1.019362
    13  H   -0.009236  -0.004711  -0.000688   0.033108   0.011341  -0.121595
    14  H   -0.010451  -0.000492  -0.000593   0.065391  -0.003057   0.000211
    15  H    0.099736   0.002364  -0.060733  -0.010098  -0.000976  -0.003506
    16  H    0.101636  -0.111898   0.134682  -0.000433   0.000024   0.000045
    17  H   -0.002836   0.000409   0.000108   0.462303  -0.315553  -0.000694
              13         14         15         16         17
     1  C    0.041869   0.068548  -0.229977   0.000590  -0.001698
     2  C   -0.465996   0.016184  -0.007254  -0.020256   0.008472
     3  C    0.554152   0.010834   0.008632  -0.000350  -0.042749
     4  C   -0.159730  -0.272635   0.056926  -0.000984  -0.169136
     5  C    0.012667   0.424815  -0.415200   0.001499   0.013752
     6  C    0.007074  -0.391330   0.393285  -0.007685   0.006315
     7  C   -0.009236  -0.010451   0.099736   0.101636  -0.002836
     8  O   -0.004711  -0.000492   0.002364  -0.111898   0.000409
     9  O   -0.000688  -0.000593  -0.060733   0.134682   0.000108
    10  C    0.033108   0.065391  -0.010098  -0.000433   0.462303
    11  O    0.011341  -0.003057  -0.000976   0.000024  -0.315553
    12  H   -0.121595   0.000211  -0.003506   0.000045  -0.000694
    13  H    1.015024   0.001104  -0.000710   0.000257  -0.047597
    14  H    0.001104   1.053851  -0.078171   0.000063   0.017152
    15  H   -0.000710  -0.078171   1.001947   0.004805  -0.000163
    16  H    0.000257   0.000063   0.004805   0.601613  -0.000085
    17  H   -0.047597   0.017152  -0.000163  -0.000085   0.650196
 Mulliken charges:
               1
     1  C    1.639111
     2  C   -0.671633
     3  C   -0.597587
     4  C    1.544348
     5  C   -0.648620
     6  C   -0.474983
     7  C    0.328448
     8  O   -0.888741
     9  O   -0.519736
    10  C   -0.211657
    11  O   -0.847881
    12  H    0.159310
    13  H    0.133666
    14  H    0.098576
    15  H    0.239094
    16  H    0.296478
    17  H    0.421806
 Sum of Mulliken charges =   0.00000
 Mulliken charges with hydrogens summed into heavy atoms:
               1
     1  C    1.639111
     2  C   -0.512323
     3  C   -0.463921
     4  C    1.544348
     5  C   -0.550044
     6  C   -0.235889
     7  C    0.328448
     8  O   -0.888741
     9  O   -0.223257
    10  C    0.210149
    11  O   -0.847881
 Electronic spatial extent (au):  <R**2>=           2057.7241
 Charge=              0.0000 electrons
 Dipole moment (field-independent basis, Debye):
    X=             -1.4325    Y=              0.1930    Z=              0.0008  Tot=              1.4454
 Quadrupole moment (field-independent basis, Debye-Ang):
   XX=            -72.0164   YY=            -59.0057   ZZ=            -64.1394
   XY=             14.3740   XZ=             -0.0028   YZ=              0.0039
 Traceless Quadrupole moment (field-independent basis, Debye-Ang):
   XX=             -6.9626   YY=              6.0481   ZZ=              0.9144
   XY=             14.3740   XZ=             -0.0028   YZ=              0.0039
 Octapole moment (field-independent basis, Debye-Ang**2):
  XXX=            -94.6188  YYY=             -1.7175  ZZZ=              0.0075  XYY=              3.4061
  XXY=             -8.1778  XXZ=              0.0165  XZZ=             -4.3189  YZZ=             -1.8090
  YYZ=              0.0025  XYZ=              0.0047
 Hexadecapole moment (field-independent basis, Debye-Ang**3):
 XXXX=          -2223.8118 YYYY=           -402.1474 ZZZZ=            -66.2460 XXXY=            257.9490
 XXXZ=             -0.1007 YYYX=             10.4897 YYYZ=              0.0096 ZZZX=             -0.0012
 ZZZY=             -0.0068 XXYY=           -422.0860 XXZZ=           -354.0438 YYZZ=            -89.6820
 XXYZ=              0.0110 YYXZ=              0.0015 ZZXY=             -1.6616
 N-N= 5.490916775356D+02 E-N=-2.345990216676D+03  KE= 5.314694712166D+02
 ******************************Gaussian NBO Version 3.1******************************
             N A T U R A L   A T O M I C   O R B I T A L   A N D
          N A T U R A L   B O N D   O R B I T A L   A N A L Y S I S
 ******************************Gaussian NBO Version 3.1******************************
       /RESON  / : Allow strongly delocalized NBO set

 Analyzing the SCF density

 Job title: CYH-217-A_eq00002                                               

 Storage needed:   1246904 in NPA,   1661211 in NBO (********** available)
 GSVD:  LWork=        9744 too small for GESVD, short by      796208 words or      796208 for optimal perf.


 NATURAL POPULATIONS:  Natural atomic orbital occupancies 
                                                          
   NAO  Atom  No  lang   Type(AO)    Occupancy      Energy
 ----------------------------------------------------------
     1    C    1  S      Cor( 1S)     1.99901     -10.43398
     2    C    1  S      Val( 2S)     0.93863      -0.21319
     3    C    1  S      Ryd( 3S)     0.00132       1.75026
     4    C    1  S      Ryd( 4S)     0.00007       2.64884
     5    C    1  S      Ryd( 5S)     0.00003       3.18578
     6    C    1  px     Val( 2p)     1.05679      -0.10930
     7    C    1  px     Ryd( 4p)     0.00606       2.05380
     8    C    1  px     Ryd( 5p)     0.00006       2.35279
     9    C    1  px     Ryd( 3p)     0.00005       1.18658
    10    C    1  py     Val( 2p)     1.09674      -0.10434
    11    C    1  py     Ryd( 4p)     0.00563       1.85504
    12    C    1  py     Ryd( 5p)     0.00005       2.16039
    13    C    1  py     Ryd( 3p)     0.00002       1.06480
    14    C    1  pz     Val( 2p)     1.03127      -0.14903
    15    C    1  pz     Ryd( 4p)     0.00087       0.86759
    16    C    1  pz     Ryd( 5p)     0.00006       1.75604
    17    C    1  pz     Ryd( 3p)     0.00001       0.71172
    18    C    1  dxy    Ryd( 3d)     0.00076       2.81182
    19    C    1  dxy    Ryd( 4d)     0.00035       3.64143
    20    C    1  dxy    Ryd( 5d)     0.00007       4.86276
    21    C    1  dxz    Ryd( 3d)     0.00014       1.50851
    22    C    1  dxz    Ryd( 5d)     0.00010       2.88099
    23    C    1  dxz    Ryd( 4d)     0.00006       1.97617
    24    C    1  dyz    Ryd( 3d)     0.00045       1.38082
    25    C    1  dyz    Ryd( 5d)     0.00007       2.81294
    26    C    1  dyz    Ryd( 4d)     0.00004       2.16803
    27    C    1  dx2y2  Ryd( 3d)     0.00230       3.36178
    28    C    1  dx2y2  Ryd( 5d)     0.00017       3.83335
    29    C    1  dx2y2  Ryd( 4d)     0.00005       3.71628
    30    C    1  dz2    Ryd( 3d)     0.00079       1.85311
    31    C    1  dz2    Ryd( 4d)     0.00015       3.65974
    32    C    1  dz2    Ryd( 5d)     0.00009       4.94632
    33    C    1  f(0)   Ryd( 4f)     0.00055       1.32121
    34    C    1  f(0)   Ryd( 5f)     0.00011       3.50531
    35    C    1  f(C1)  Ryd( 4f)     0.00016       1.70080
    36    C    1  f(C1)  Ryd( 5f)     0.00039       3.64318
    37    C    1  f(S1)  Ryd( 4f)     0.00057       1.55684
    38    C    1  f(S1)  Ryd( 5f)     0.00021       3.65056
    39    C    1  f(C2)  Ryd( 4f)     0.00051       1.28388
    40    C    1  f(C2)  Ryd( 5f)     0.00002       3.55353
    41    C    1  f(S2)  Ryd( 4f)     0.00058       1.20967
    42    C    1  f(S2)  Ryd( 5f)     0.00003       3.55189
    43    C    1  f(C3)  Ryd( 4f)     0.00083       1.81268
    44    C    1  f(C3)  Ryd( 5f)     0.00011       4.17363
    45    C    1  f(S3)  Ryd( 4f)     0.00202       2.20387
    46    C    1  f(S3)  Ryd( 5f)     0.00014       4.39058
 
    47    C    2  S      Cor( 1S)     1.99921     -10.41609
    48    C    2  S      Val( 2S)     0.96521      -0.22798
    49    C    2  S      Ryd( 4S)     0.00129       1.77164
    50    C    2  S      Ryd( 5S)     0.00008       2.93533
    51    C    2  S      Ryd( 3S)     0.00002       1.62304
    52    C    2  px     Val( 2p)     1.09095      -0.08514
    53    C    2  px     Ryd( 4p)     0.00352       1.77202
    54    C    2  px     Ryd( 3p)     0.00008       1.22274
    55    C    2  px     Ryd( 5p)     0.00006       1.94467
    56    C    2  py     Val( 2p)     1.13628      -0.09152
    57    C    2  py     Ryd( 4p)     0.00444       1.60148
    58    C    2  py     Ryd( 3p)     0.00004       1.39835
    59    C    2  py     Ryd( 5p)     0.00004       1.77136
    60    C    2  pz     Val( 2p)     0.94938      -0.13677
    61    C    2  pz     Ryd( 4p)     0.00064       0.98334
    62    C    2  pz     Ryd( 3p)     0.00002       0.95636
    63    C    2  pz     Ryd( 5p)     0.00003       1.31992
    64    C    2  dxy    Ryd( 3d)     0.00176       2.45420
    65    C    2  dxy    Ryd( 5d)     0.00014       3.61748
    66    C    2  dxy    Ryd( 4d)     0.00007       2.91825
    67    C    2  dxz    Ryd( 3d)     0.00030       1.47848
    68    C    2  dxz    Ryd( 5d)     0.00003       2.88015
    69    C    2  dxz    Ryd( 4d)     0.00003       1.77279
    70    C    2  dyz    Ryd( 3d)     0.00022       1.36522
    71    C    2  dyz    Ryd( 5d)     0.00006       2.90218
    72    C    2  dyz    Ryd( 4d)     0.00003       1.49410
    73    C    2  dx2y2  Ryd( 4d)     0.00155       3.43349
    74    C    2  dx2y2  Ryd( 5d)     0.00029       3.94025
    75    C    2  dx2y2  Ryd( 3d)     0.00006       2.09122
    76    C    2  dz2    Ryd( 3d)     0.00081       1.79484
    77    C    2  dz2    Ryd( 4d)     0.00008       3.57038
    78    C    2  dz2    Ryd( 5d)     0.00005       3.72013
    79    C    2  f(0)   Ryd( 5f)     0.00009       3.40703
    80    C    2  f(0)   Ryd( 4f)     0.00003       2.16175
    81    C    2  f(C1)  Ryd( 5f)     0.00024       3.76974
    82    C    2  f(C1)  Ryd( 4f)     0.00002       3.17807
    83    C    2  f(S1)  Ryd( 5f)     0.00018       3.63162
    84    C    2  f(S1)  Ryd( 4f)     0.00003       2.82392
    85    C    2  f(C2)  Ryd( 5f)     0.00001       3.48883
    86    C    2  f(C2)  Ryd( 4f)     0.00003       2.36776
    87    C    2  f(S2)  Ryd( 5f)     0.00001       3.57551
    88    C    2  f(S2)  Ryd( 4f)     0.00001       2.17594
    89    C    2  f(C3)  Ryd( 4f)     0.00015       4.17482
    90    C    2  f(C3)  Ryd( 5f)     0.00004       5.85709
    91    C    2  f(S3)  Ryd( 5f)     0.00007       4.16237
    92    C    2  f(S3)  Ryd( 4f)     0.00010       3.88014
 
    93    C    3  S      Cor( 1S)     1.99920     -10.41964
    94    C    3  S      Val( 2S)     0.96164      -0.23097
    95    C    3  S      Ryd( 3S)     0.00096       1.85431
    96    C    3  S      Ryd( 5S)     0.00007       2.62840
    97    C    3  S      Ryd( 4S)     0.00001       2.00010
    98    C    3  px     Val( 2p)     1.07841      -0.08900
    99    C    3  px     Ryd( 5p)     0.00359       1.72626
   100    C    3  px     Ryd( 4p)     0.00002       1.72092
   101    C    3  px     Ryd( 3p)     0.00006       1.36401
   102    C    3  py     Val( 2p)     1.14351      -0.09327
   103    C    3  py     Ryd( 4p)     0.00399       1.60913
   104    C    3  py     Ryd( 5p)     0.00006       1.70740
   105    C    3  py     Ryd( 3p)     0.00003       1.55110
   106    C    3  pz     Val( 2p)     0.97185      -0.14331
   107    C    3  pz     Ryd( 3p)     0.00062       0.97464
   108    C    3  pz     Ryd( 5p)     0.00004       1.17276
   109    C    3  pz     Ryd( 4p)     0.00002       1.11025
   110    C    3  dxy    Ryd( 4d)     0.00196       2.68849
   111    C    3  dxy    Ryd( 5d)     0.00015       3.79712
   112    C    3  dxy    Ryd( 3d)     0.00007       2.49530
   113    C    3  dxz    Ryd( 3d)     0.00048       1.45013
   114    C    3  dxz    Ryd( 5d)     0.00003       2.94564
   115    C    3  dxz    Ryd( 4d)     0.00004       1.72015
   116    C    3  dyz    Ryd( 4d)     0.00021       1.38241
   117    C    3  dyz    Ryd( 5d)     0.00003       2.98883
   118    C    3  dyz    Ryd( 3d)     0.00003       1.34756
   119    C    3  dx2y2  Ryd( 4d)     0.00136       3.24919
   120    C    3  dx2y2  Ryd( 5d)     0.00027       3.91473
   121    C    3  dx2y2  Ryd( 3d)     0.00006       2.24952
   122    C    3  dz2    Ryd( 3d)     0.00067       1.78794
   123    C    3  dz2    Ryd( 4d)     0.00009       3.61396
   124    C    3  dz2    Ryd( 5d)     0.00007       3.86048
   125    C    3  f(0)   Ryd( 5f)     0.00009       3.43505
   126    C    3  f(0)   Ryd( 4f)     0.00003       2.14161
   127    C    3  f(C1)  Ryd( 5f)     0.00023       3.71785
   128    C    3  f(C1)  Ryd( 4f)     0.00002       3.14277
   129    C    3  f(S1)  Ryd( 5f)     0.00017       3.65699
   130    C    3  f(S1)  Ryd( 4f)     0.00002       2.78828
   131    C    3  f(C2)  Ryd( 5f)     0.00001       3.53228
   132    C    3  f(C2)  Ryd( 4f)     0.00002       2.35170
   133    C    3  f(S2)  Ryd( 5f)     0.00001       3.57594
   134    C    3  f(S2)  Ryd( 4f)     0.00001       2.14934
   135    C    3  f(C3)  Ryd( 4f)     0.00015       4.17899
   136    C    3  f(C3)  Ryd( 5f)     0.00004       5.79944
   137    C    3  f(S3)  Ryd( 5f)     0.00008       4.18988
   138    C    3  f(S3)  Ryd( 4f)     0.00009       3.85293
 
   139    C    4  S      Cor( 1S)     1.99912     -10.42466
   140    C    4  S      Val( 2S)     0.94473      -0.21414
   141    C    4  S      Ryd( 3S)     0.00110       1.59785
   142    C    4  S      Ryd( 4S)     0.00008       2.81600
   143    C    4  S      Ryd( 5S)     0.00002       3.06644
   144    C    4  px     Val( 2p)     1.07474      -0.10325
   145    C    4  px     Ryd( 4p)     0.00622       1.99579
   146    C    4  px     Ryd( 5p)     0.00005       2.65052
   147    C    4  px     Ryd( 3p)     0.00003       0.74213
   148    C    4  py     Val( 2p)     1.08897      -0.09643
   149    C    4  py     Ryd( 4p)     0.00412       1.81309
   150    C    4  py     Ryd( 5p)     0.00002       2.27200
   151    C    4  py     Ryd( 3p)     0.00002       0.73224
   152    C    4  pz     Val( 2p)     1.02097      -0.14351
   153    C    4  pz     Ryd( 4p)     0.00090       0.86068
   154    C    4  pz     Ryd( 5p)     0.00006       1.85439
   155    C    4  pz     Ryd( 3p)     0.00000       0.49513
   156    C    4  dxy    Ryd( 3d)     0.00079       3.46538
   157    C    4  dxy    Ryd( 4d)     0.00030       3.56697
   158    C    4  dxy    Ryd( 5d)     0.00006       4.11877
   159    C    4  dxz    Ryd( 3d)     0.00016       1.85380
   160    C    4  dxz    Ryd( 5d)     0.00006       2.64801
   161    C    4  dxz    Ryd( 4d)     0.00003       1.85605
   162    C    4  dyz    Ryd( 3d)     0.00049       1.76949
   163    C    4  dyz    Ryd( 5d)     0.00002       2.54695
   164    C    4  dyz    Ryd( 4d)     0.00003       1.95722
   165    C    4  dx2y2  Ryd( 4d)     0.00131       3.47419
   166    C    4  dx2y2  Ryd( 5d)     0.00009       3.81919
   167    C    4  dx2y2  Ryd( 3d)     0.00005       3.19371
   168    C    4  dz2    Ryd( 3d)     0.00045       2.48466
   169    C    4  dz2    Ryd( 4d)     0.00015       3.30877
   170    C    4  dz2    Ryd( 5d)     0.00008       4.82016
   171    C    4  f(0)   Ryd( 4f)     0.00037       1.33555
   172    C    4  f(0)   Ryd( 5f)     0.00011       3.48989
   173    C    4  f(C1)  Ryd( 4f)     0.00027       1.68124
   174    C    4  f(C1)  Ryd( 5f)     0.00032       3.62855
   175    C    4  f(S1)  Ryd( 4f)     0.00054       1.54521
   176    C    4  f(S1)  Ryd( 5f)     0.00017       3.61961
   177    C    4  f(C2)  Ryd( 4f)     0.00044       1.26940
   178    C    4  f(C2)  Ryd( 5f)     0.00002       3.54526
   179    C    4  f(S2)  Ryd( 4f)     0.00031       1.20819
   180    C    4  f(S2)  Ryd( 5f)     0.00002       3.52660
   181    C    4  f(C3)  Ryd( 4f)     0.00073       1.69460
   182    C    4  f(C3)  Ryd( 5f)     0.00010       4.14249
   183    C    4  f(S3)  Ryd( 4f)     0.00264       2.07885
   184    C    4  f(S3)  Ryd( 5f)     0.00018       4.28155
 
   185    C    5  S      Cor( 1S)     1.99919     -10.41351
   186    C    5  S      Val( 2S)     0.96547      -0.22455
   187    C    5  S      Ryd( 3S)     0.00115       1.81027
   188    C    5  S      Ryd( 5S)     0.00007       2.79183
   189    C    5  S      Ryd( 4S)     0.00002       1.89536
   190    C    5  px     Val( 2p)     1.08997      -0.08138
   191    C    5  px     Ryd( 4p)     0.00398       1.74601
   192    C    5  px     Ryd( 5p)     0.00005       1.94178
   193    C    5  px     Ryd( 3p)     0.00010       1.23900
   194    C    5  py     Val( 2p)     1.13842      -0.08839
   195    C    5  py     Ryd( 4p)     0.00423       1.59669
   196    C    5  py     Ryd( 5p)     0.00005       1.74073
   197    C    5  py     Ryd( 3p)     0.00003       1.42597
   198    C    5  pz     Val( 2p)     0.94423      -0.13393
   199    C    5  pz     Ryd( 3p)     0.00060       0.98073
   200    C    5  pz     Ryd( 5p)     0.00003       1.26996
   201    C    5  pz     Ryd( 4p)     0.00000       1.00909
   202    C    5  dxy    Ryd( 3d)     0.00188       2.45173
   203    C    5  dxy    Ryd( 5d)     0.00016       3.54257
   204    C    5  dxy    Ryd( 4d)     0.00008       3.06513
   205    C    5  dxz    Ryd( 3d)     0.00028       1.45204
   206    C    5  dxz    Ryd( 5d)     0.00004       2.77758
   207    C    5  dxz    Ryd( 4d)     0.00003       1.90478
   208    C    5  dyz    Ryd( 3d)     0.00021       1.38896
   209    C    5  dyz    Ryd( 5d)     0.00004       2.80910
   210    C    5  dyz    Ryd( 4d)     0.00003       1.61670
   211    C    5  dx2y2  Ryd( 4d)     0.00154       3.47960
   212    C    5  dx2y2  Ryd( 5d)     0.00026       3.81565
   213    C    5  dx2y2  Ryd( 3d)     0.00006       2.37969
   214    C    5  dz2    Ryd( 3d)     0.00067       1.78568
   215    C    5  dz2    Ryd( 4d)     0.00010       3.58769
   216    C    5  dz2    Ryd( 5d)     0.00006       3.80896
   217    C    5  f(0)   Ryd( 5f)     0.00008       3.37090
   218    C    5  f(0)   Ryd( 4f)     0.00003       2.20974
   219    C    5  f(C1)  Ryd( 5f)     0.00024       3.73365
   220    C    5  f(C1)  Ryd( 4f)     0.00003       3.14072
   221    C    5  f(S1)  Ryd( 5f)     0.00018       3.60074
   222    C    5  f(S1)  Ryd( 4f)     0.00002       2.83090
   223    C    5  f(C2)  Ryd( 5f)     0.00001       3.46190
   224    C    5  f(C2)  Ryd( 4f)     0.00002       2.39054
   225    C    5  f(S2)  Ryd( 5f)     0.00001       3.55237
   226    C    5  f(S2)  Ryd( 4f)     0.00001       2.20351
   227    C    5  f(C3)  Ryd( 4f)     0.00016       4.14841
   228    C    5  f(C3)  Ryd( 5f)     0.00003       5.72807
   229    C    5  f(S3)  Ryd( 5f)     0.00008       4.12150
   230    C    5  f(S3)  Ryd( 4f)     0.00010       3.96085
 
   231    C    6  S      Cor( 1S)     1.99920     -10.41615
   232    C    6  S      Val( 2S)     0.96542      -0.22841
   233    C    6  S      Ryd( 4S)     0.00112       1.79650
   234    C    6  S      Ryd( 5S)     0.00008       3.04154
   235    C    6  S      Ryd( 3S)     0.00002       1.77559
   236    C    6  px     Val( 2p)     1.07858      -0.08482
   237    C    6  px     Ryd( 4p)     0.00320       1.75226
   238    C    6  px     Ryd( 3p)     0.00010       1.06115
   239    C    6  px     Ryd( 5p)     0.00006       2.08641
   240    C    6  py     Val( 2p)     1.14920      -0.09106
   241    C    6  py     Ryd( 4p)     0.00425       1.61911
   242    C    6  py     Ryd( 3p)     0.00005       1.28002
   243    C    6  py     Ryd( 5p)     0.00005       1.99244
   244    C    6  pz     Val( 2p)     0.95655      -0.13797
   245    C    6  pz     Ryd( 4p)     0.00061       0.98632
   246    C    6  pz     Ryd( 3p)     0.00002       0.84576
   247    C    6  pz     Ryd( 5p)     0.00003       1.43613
   248    C    6  dxy    Ryd( 3d)     0.00181       2.68500
   249    C    6  dxy    Ryd( 5d)     0.00015       3.61772
   250    C    6  dxy    Ryd( 4d)     0.00008       2.72513
   251    C    6  dxz    Ryd( 3d)     0.00045       1.41822
   252    C    6  dxz    Ryd( 5d)     0.00003       2.80089
   253    C    6  dxz    Ryd( 4d)     0.00004       1.92139
   254    C    6  dyz    Ryd( 3d)     0.00024       1.33928
   255    C    6  dyz    Ryd( 5d)     0.00006       2.85949
   256    C    6  dyz    Ryd( 4d)     0.00003       1.58711
   257    C    6  dx2y2  Ryd( 4d)     0.00162       3.16548
   258    C    6  dx2y2  Ryd( 5d)     0.00025       3.73548
   259    C    6  dx2y2  Ryd( 3d)     0.00007       2.56403
   260    C    6  dz2    Ryd( 3d)     0.00084       1.72912
   261    C    6  dz2    Ryd( 4d)     0.00011       3.63663
   262    C    6  dz2    Ryd( 5d)     0.00007       3.75926
   263    C    6  f(0)   Ryd( 5f)     0.00009       3.44163
   264    C    6  f(0)   Ryd( 4f)     0.00003       2.12518
   265    C    6  f(C1)  Ryd( 5f)     0.00026       3.78746
   266    C    6  f(C1)  Ryd( 4f)     0.00002       3.17572
   267    C    6  f(S1)  Ryd( 5f)     0.00018       3.65627
   268    C    6  f(S1)  Ryd( 4f)     0.00003       2.72290
   269    C    6  f(C2)  Ryd( 5f)     0.00001       3.53932
   270    C    6  f(C2)  Ryd( 4f)     0.00002       2.35620
   271    C    6  f(S2)  Ryd( 5f)     0.00001       3.56856
   272    C    6  f(S2)  Ryd( 4f)     0.00002       2.14182
   273    C    6  f(C3)  Ryd( 4f)     0.00016       4.19160
   274    C    6  f(C3)  Ryd( 5f)     0.00004       5.86276
   275    C    6  f(S3)  Ryd( 5f)     0.00007       4.22082
   276    C    6  f(S3)  Ryd( 4f)     0.00010       3.81817
 
   277    C    7  S      Cor( 1S)     1.99939     -10.57321
   278    C    7  S      Val( 2S)     0.79037      -0.15833
   279    C    7  S      Ryd( 4S)     0.00421       1.88349
   280    C    7  S      Ryd( 3S)     0.00017       1.58180
   281    C    7  S      Ryd( 5S)     0.00006       2.41906
   282    C    7  px     Val( 2p)     0.91858      -0.07337
   283    C    7  px     Ryd( 5p)     0.00646       1.53464
   284    C    7  px     Ryd( 3p)     0.00021       1.07983
   285    C    7  px     Ryd( 4p)     0.00001       1.45198
   286    C    7  py     Val( 2p)     0.71834      -0.02710
   287    C    7  py     Ryd( 4p)     0.01329       1.57576
   288    C    7  py     Ryd( 3p)     0.00007       1.18705
   289    C    7  py     Ryd( 5p)     0.00006       1.73533
   290    C    7  pz     Val( 2p)     0.74041      -0.13750
   291    C    7  pz     Ryd( 5p)     0.00042       1.11647
   292    C    7  pz     Ryd( 3p)     0.00008       0.67343
   293    C    7  pz     Ryd( 4p)     0.00002       1.00384
   294    C    7  dxy    Ryd( 4d)     0.00052       3.21535
   295    C    7  dxy    Ryd( 3d)     0.00029       2.26964
   296    C    7  dxy    Ryd( 5d)     0.00011       3.88364
   297    C    7  dxz    Ryd( 4d)     0.00097       2.51170
   298    C    7  dxz    Ryd( 3d)     0.00012       1.48764
   299    C    7  dxz    Ryd( 5d)     0.00006       2.51905
   300    C    7  dyz    Ryd( 4d)     0.00163       2.63511
   301    C    7  dyz    Ryd( 3d)     0.00005       1.61129
   302    C    7  dyz    Ryd( 5d)     0.00005       2.68830
   303    C    7  dx2y2  Ryd( 4d)     0.00222       3.25328
   304    C    7  dx2y2  Ryd( 3d)     0.00016       1.94659
   305    C    7  dx2y2  Ryd( 5d)     0.00007       3.62766
   306    C    7  dz2    Ryd( 5d)     0.00025       3.52515
   307    C    7  dz2    Ryd( 3d)     0.00052       1.99056
   308    C    7  dz2    Ryd( 4d)     0.00008       3.17675
   309    C    7  f(0)   Ryd( 5f)     0.00010       3.26821
   310    C    7  f(0)   Ryd( 4f)     0.00003       2.56471
   311    C    7  f(C1)  Ryd( 5f)     0.00012       3.44650
   312    C    7  f(C1)  Ryd( 4f)     0.00002       3.17632
   313    C    7  f(S1)  Ryd( 5f)     0.00006       3.52679
   314    C    7  f(S1)  Ryd( 4f)     0.00003       3.34225
   315    C    7  f(C2)  Ryd( 5f)     0.00001       3.22136
   316    C    7  f(C2)  Ryd( 4f)     0.00004       2.74851
   317    C    7  f(S2)  Ryd( 5f)     0.00001       3.41793
   318    C    7  f(S2)  Ryd( 4f)     0.00001       2.88982
   319    C    7  f(C3)  Ryd( 4f)     0.00007       4.56417
   320    C    7  f(C3)  Ryd( 5f)     0.00003       7.85196
   321    C    7  f(S3)  Ryd( 4f)     0.00011       4.28140
   322    C    7  f(S3)  Ryd( 5f)     0.00004       4.40993
 
   323    O    8  S      Cor( 1S)     1.99977     -19.34302
   324    O    8  S      Val( 2S)     1.70233      -1.01966
   325    O    8  S      Ryd( 4S)     0.00057       2.88183
   326    O    8  S      Ryd( 3S)     0.00021       1.78259
   327    O    8  S      Ryd( 5S)     0.00001       8.41356
   328    O    8  px     Val( 2p)     1.74737      -0.35671
   329    O    8  px     Ryd( 4p)     0.00139       1.36250
   330    O    8  px     Ryd( 3p)     0.00011       0.76785
   331    O    8  px     Ryd( 5p)     0.00004       4.78676
   332    O    8  py     Val( 2p)     1.66076      -0.35905
   333    O    8  py     Ryd( 4p)     0.00144       1.43421
   334    O    8  py     Ryd( 3p)     0.00009       0.69582
   335    O    8  py     Ryd( 5p)     0.00005       5.17889
   336    O    8  pz     Val( 2p)     1.45362      -0.30545
   337    O    8  pz     Ryd( 4p)     0.00055       1.00637
   338    O    8  pz     Ryd( 3p)     0.00002       0.53827
   339    O    8  pz     Ryd( 5p)     0.00001       4.16821
   340    O    8  dxy    Ryd( 3d)     0.00844       2.03331
   341    O    8  dxy    Ryd( 4d)     0.00011       3.41889
   342    O    8  dxy    Ryd( 5d)     0.00002       6.53022
   343    O    8  dxz    Ryd( 3d)     0.00262       1.43170
   344    O    8  dxz    Ryd( 4d)     0.00001       1.74257
   345    O    8  dxz    Ryd( 5d)     0.00001       6.36239
   346    O    8  dyz    Ryd( 3d)     0.00460       1.49750
   347    O    8  dyz    Ryd( 4d)     0.00003       1.76946
   348    O    8  dyz    Ryd( 5d)     0.00002       6.33072
   349    O    8  dx2y2  Ryd( 3d)     0.00614       1.76794
   350    O    8  dx2y2  Ryd( 4d)     0.00008       2.13870
   351    O    8  dx2y2  Ryd( 5d)     0.00006       6.42887
   352    O    8  dz2    Ryd( 3d)     0.00283       1.60493
   353    O    8  dz2    Ryd( 4d)     0.00009       2.52031
   354    O    8  dz2    Ryd( 5d)     0.00000       6.44509
   355    O    8  f(0)   Ryd( 4f)     0.00015       3.06935
   356    O    8  f(0)   Ryd( 5f)     0.00000       5.49857
   357    O    8  f(C1)  Ryd( 4f)     0.00008       3.26347
   358    O    8  f(C1)  Ryd( 5f)     0.00001       5.61343
   359    O    8  f(S1)  Ryd( 4f)     0.00010       3.45448
   360    O    8  f(S1)  Ryd( 5f)     0.00001       5.73089
   361    O    8  f(C2)  Ryd( 4f)     0.00005       3.01658
   362    O    8  f(C2)  Ryd( 5f)     0.00001       5.72694
   363    O    8  f(S2)  Ryd( 4f)     0.00035       3.13463
   364    O    8  f(S2)  Ryd( 5f)     0.00001       5.59742
   365    O    8  f(C3)  Ryd( 4f)     0.00036       4.00829
   366    O    8  f(C3)  Ryd( 5f)     0.00001       6.02273
   367    O    8  f(S3)  Ryd( 4f)     0.00053       3.57440
   368    O    8  f(S3)  Ryd( 5f)     0.00003       5.94171
 
   369    O    9  S      Cor( 1S)     1.99977     -19.47205
   370    O    9  S      Val( 2S)     1.67337      -1.05255
   371    O    9  S      Ryd( 3S)     0.00063       1.74793
   372    O    9  S      Ryd( 4S)     0.00005       2.45811
   373    O    9  S      Ryd( 5S)     0.00002       9.35493
   374    O    9  px     Val( 2p)     1.53925      -0.38810
   375    O    9  px     Ryd( 3p)     0.00069       1.17513
   376    O    9  px     Ryd( 4p)     0.00010       1.57042
   377    O    9  px     Ryd( 5p)     0.00003       4.48407
   378    O    9  py     Val( 2p)     1.62847      -0.41607
   379    O    9  py     Ryd( 3p)     0.00087       1.06742
   380    O    9  py     Ryd( 4p)     0.00009       1.24078
   381    O    9  py     Ryd( 5p)     0.00009       4.43085
   382    O    9  pz     Val( 2p)     1.83417      -0.42920
   383    O    9  pz     Ryd( 3p)     0.00112       0.84097
   384    O    9  pz     Ryd( 4p)     0.00001       0.94800
   385    O    9  pz     Ryd( 5p)     0.00001       3.69854
   386    O    9  dxy    Ryd( 3d)     0.00420       1.73359
   387    O    9  dxy    Ryd( 4d)     0.00013       2.56943
   388    O    9  dxy    Ryd( 5d)     0.00005       6.62572
   389    O    9  dxz    Ryd( 3d)     0.00087       1.16364
   390    O    9  dxz    Ryd( 4d)     0.00005       1.94773
   391    O    9  dxz    Ryd( 5d)     0.00001       6.37762
   392    O    9  dyz    Ryd( 3d)     0.00424       1.33618
   393    O    9  dyz    Ryd( 4d)     0.00003       1.74823
   394    O    9  dyz    Ryd( 5d)     0.00004       6.41352
   395    O    9  dx2y2  Ryd( 3d)     0.00629       1.99864
   396    O    9  dx2y2  Ryd( 4d)     0.00009       2.22829
   397    O    9  dx2y2  Ryd( 5d)     0.00006       6.92783
   398    O    9  dz2    Ryd( 3d)     0.00302       1.50149
   399    O    9  dz2    Ryd( 4d)     0.00014       2.41914
   400    O    9  dz2    Ryd( 5d)     0.00001       6.64150
   401    O    9  f(0)   Ryd( 4f)     0.00057       2.74090
   402    O    9  f(0)   Ryd( 5f)     0.00001       5.94198
   403    O    9  f(C1)  Ryd( 4f)     0.00021       3.28758
   404    O    9  f(C1)  Ryd( 5f)     0.00001       6.22086
   405    O    9  f(S1)  Ryd( 4f)     0.00019       3.33360
   406    O    9  f(S1)  Ryd( 5f)     0.00001       6.09375
   407    O    9  f(C2)  Ryd( 4f)     0.00002       2.85704
   408    O    9  f(C2)  Ryd( 5f)     0.00001       6.07460
   409    O    9  f(S2)  Ryd( 4f)     0.00013       2.75383
   410    O    9  f(S2)  Ryd( 5f)     0.00001       5.98206
   411    O    9  f(C3)  Ryd( 4f)     0.00017       4.39553
   412    O    9  f(C3)  Ryd( 5f)     0.00006       6.56875
   413    O    9  f(S3)  Ryd( 4f)     0.00003       3.70858
   414    O    9  f(S3)  Ryd( 5f)     0.00002       6.40307
 
   415    C   10  S      Cor( 1S)     1.99944     -10.51344
   416    C   10  S      Val( 2S)     0.92833      -0.23534
   417    C   10  S      Ryd( 4S)     0.00872       1.70545
   418    C   10  S      Ryd( 5S)     0.00008       2.19719
   419    C   10  S      Ryd( 3S)     0.00003       1.44982
   420    C   10  px     Val( 2p)     0.93218      -0.05454
   421    C   10  px     Ryd( 5p)     0.00615       1.53095
   422    C   10  px     Ryd( 3p)     0.00021       1.04031
   423    C   10  px     Ryd( 4p)     0.00002       1.10626
   424    C   10  py     Val( 2p)     0.96332      -0.06474
   425    C   10  py     Ryd( 5p)     0.00771       1.65617
   426    C   10  py     Ryd( 3p)     0.00006       1.39692
   427    C   10  py     Ryd( 4p)     0.00008       1.46526
   428    C   10  pz     Val( 2p)     0.71500      -0.12772
   429    C   10  pz     Ryd( 5p)     0.00022       1.14843
   430    C   10  pz     Ryd( 4p)     0.00002       0.92732
   431    C   10  pz     Ryd( 3p)     0.00003       0.79201
   432    C   10  dxy    Ryd( 4d)     0.00063       2.83211
   433    C   10  dxy    Ryd( 5d)     0.00022       3.36638
   434    C   10  dxy    Ryd( 3d)     0.00005       2.70832
   435    C   10  dxz    Ryd( 4d)     0.00082       2.02389
   436    C   10  dxz    Ryd( 5d)     0.00002       2.39754
   437    C   10  dxz    Ryd( 3d)     0.00004       1.74143
   438    C   10  dyz    Ryd( 4d)     0.00051       2.08829
   439    C   10  dyz    Ryd( 5d)     0.00009       2.53542
   440    C   10  dyz    Ryd( 3d)     0.00002       1.62052
   441    C   10  dx2y2  Ryd( 4d)     0.00348       2.77409
   442    C   10  dx2y2  Ryd( 5d)     0.00016       3.18312
   443    C   10  dx2y2  Ryd( 3d)     0.00001       2.50991
   444    C   10  dz2    Ryd( 3d)     0.00028       2.71831
   445    C   10  dz2    Ryd( 4d)     0.00016       2.83265
   446    C   10  dz2    Ryd( 5d)     0.00004       3.16819
   447    C   10  f(0)   Ryd( 5f)     0.00005       2.88933
   448    C   10  f(0)   Ryd( 4f)     0.00001       2.59257
   449    C   10  f(C1)  Ryd( 4f)     0.00013       3.14026
   450    C   10  f(C1)  Ryd( 5f)     0.00001       3.26457
   451    C   10  f(S1)  Ryd( 5f)     0.00009       3.26559
   452    C   10  f(S1)  Ryd( 4f)     0.00001       3.10708
   453    C   10  f(C2)  Ryd( 5f)     0.00001       2.93748
   454    C   10  f(C2)  Ryd( 4f)     0.00002       2.71731
   455    C   10  f(S2)  Ryd( 5f)     0.00002       3.17584
   456    C   10  f(S2)  Ryd( 4f)     0.00000       2.75287
   457    C   10  f(C3)  Ryd( 4f)     0.00010       4.49863
   458    C   10  f(C3)  Ryd( 5f)     0.00003       6.43170
   459    C   10  f(S3)  Ryd( 4f)     0.00008       3.55116
   460    C   10  f(S3)  Ryd( 5f)     0.00004       3.92072
 
   461    O   11  S      Cor( 1S)     1.99980     -19.36102
   462    O   11  S      Val( 2S)     1.69755      -1.01872
   463    O   11  S      Ryd( 3S)     0.00050       2.21465
   464    O   11  S      Ryd( 4S)     0.00009       3.55540
   465    O   11  S      Ryd( 5S)     0.00001       7.34539
   466    O   11  px     Val( 2p)     1.76293      -0.36250
   467    O   11  px     Ryd( 4p)     0.00193       1.29234
   468    O   11  px     Ryd( 3p)     0.00012       0.83146
   469    O   11  px     Ryd( 5p)     0.00003       4.99149
   470    O   11  py     Val( 2p)     1.68586      -0.36390
   471    O   11  py     Ryd( 4p)     0.00149       1.30022
   472    O   11  py     Ryd( 3p)     0.00010       0.54089
   473    O   11  py     Ryd( 5p)     0.00003       5.18684
   474    O   11  pz     Val( 2p)     1.33989      -0.29334
   475    O   11  pz     Ryd( 4p)     0.00042       0.95539
   476    O   11  pz     Ryd( 3p)     0.00001       0.43954
   477    O   11  pz     Ryd( 5p)     0.00001       4.21464
   478    O   11  dxy    Ryd( 3d)     0.00826       1.99157
   479    O   11  dxy    Ryd( 4d)     0.00008       2.97916
   480    O   11  dxy    Ryd( 5d)     0.00001       6.91132
   481    O   11  dxz    Ryd( 3d)     0.00236       1.50685
   482    O   11  dxz    Ryd( 4d)     0.00002       1.51615
   483    O   11  dxz    Ryd( 5d)     0.00000       6.56442
   484    O   11  dyz    Ryd( 4d)     0.00349       1.55329
   485    O   11  dyz    Ryd( 3d)     0.00003       1.44676
   486    O   11  dyz    Ryd( 5d)     0.00001       6.57477
   487    O   11  dx2y2  Ryd( 4d)     0.00528       1.81354
   488    O   11  dx2y2  Ryd( 3d)     0.00005       1.68687
   489    O   11  dx2y2  Ryd( 5d)     0.00007       6.77862
   490    O   11  dz2    Ryd( 3d)     0.00299       1.62695
   491    O   11  dz2    Ryd( 4d)     0.00004       2.32312
   492    O   11  dz2    Ryd( 5d)     0.00000       6.65863
   493    O   11  f(0)   Ryd( 4f)     0.00006       3.24849
   494    O   11  f(0)   Ryd( 5f)     0.00000       5.28829
   495    O   11  f(C1)  Ryd( 4f)     0.00006       3.49135
   496    O   11  f(C1)  Ryd( 5f)     0.00001       5.45043
   497    O   11  f(S1)  Ryd( 4f)     0.00008       3.59785
   498    O   11  f(S1)  Ryd( 5f)     0.00001       5.50364
   499    O   11  f(C2)  Ryd( 4f)     0.00002       3.17296
   500    O   11  f(C2)  Ryd( 5f)     0.00001       5.57609
   501    O   11  f(S2)  Ryd( 4f)     0.00025       3.33349
   502    O   11  f(S2)  Ryd( 5f)     0.00000       5.43804
   503    O   11  f(C3)  Ryd( 4f)     0.00036       4.05503
   504    O   11  f(C3)  Ryd( 5f)     0.00001       5.85707
   505    O   11  f(S3)  Ryd( 4f)     0.00042       3.75423
   506    O   11  f(S3)  Ryd( 5f)     0.00003       5.80598
 
   507    H   12  S      Val( 1S)     0.75985       0.05521
   508    H   12  S      Ryd( 4S)     0.00050       1.96586
   509    H   12  S      Ryd( 2S)     0.00013       0.55420
   510    H   12  S      Ryd( 3S)     0.00004       1.91712
   511    H   12  px     Ryd( 2p)     0.00049       1.03914
   512    H   12  px     Ryd( 4p)     0.00011       4.05948
   513    H   12  px     Ryd( 3p)     0.00006       3.02722
   514    H   12  py     Ryd( 2p)     0.00077       0.89955
   515    H   12  py     Ryd( 4p)     0.00015       4.15124
   516    H   12  py     Ryd( 3p)     0.00006       3.79430
   517    H   12  pz     Ryd( 2p)     0.00012       0.66364
   518    H   12  pz     Ryd( 4p)     0.00003       3.89692
   519    H   12  pz     Ryd( 3p)     0.00008       1.70618
   520    H   12  dxy    Ryd( 3d)     0.00008       2.31044
   521    H   12  dxy    Ryd( 4d)     0.00004       4.35356
   522    H   12  dxz    Ryd( 3d)     0.00001       1.33441
   523    H   12  dxz    Ryd( 4d)     0.00001       3.90864
   524    H   12  dyz    Ryd( 3d)     0.00001       1.45839
   525    H   12  dyz    Ryd( 4d)     0.00001       4.02691
   526    H   12  dx2y2  Ryd( 3d)     0.00003       2.14924
   527    H   12  dx2y2  Ryd( 4d)     0.00004       4.48963
   528    H   12  dz2    Ryd( 3d)     0.00003       1.91364
   529    H   12  dz2    Ryd( 4d)     0.00004       4.00814
 
   530    H   13  S      Val( 1S)     0.78222       0.03359
   531    H   13  S      Ryd( 4S)     0.00062       1.95548
   532    H   13  S      Ryd( 2S)     0.00008       0.75815
   533    H   13  S      Ryd( 3S)     0.00002       1.63314
   534    H   13  px     Ryd( 2p)     0.00052       1.15789
   535    H   13  px     Ryd( 4p)     0.00007       4.08346
   536    H   13  px     Ryd( 3p)     0.00009       2.43500
   537    H   13  py     Ryd( 2p)     0.00057       1.07600
   538    H   13  py     Ryd( 4p)     0.00015       4.61003
   539    H   13  py     Ryd( 3p)     0.00008       3.60548
   540    H   13  pz     Ryd( 2p)     0.00020       0.75327
   541    H   13  pz     Ryd( 4p)     0.00006       3.73126
   542    H   13  pz     Ryd( 3p)     0.00004       1.76679
   543    H   13  dxy    Ryd( 3d)     0.00005       2.32088
   544    H   13  dxy    Ryd( 4d)     0.00003       4.25075
   545    H   13  dxz    Ryd( 3d)     0.00001       1.31238
   546    H   13  dxz    Ryd( 4d)     0.00000       3.79061
   547    H   13  dyz    Ryd( 3d)     0.00000       1.54077
   548    H   13  dyz    Ryd( 4d)     0.00001       3.98686
   549    H   13  dx2y2  Ryd( 3d)     0.00005       2.24283
   550    H   13  dx2y2  Ryd( 4d)     0.00004       4.32456
   551    H   13  dz2    Ryd( 3d)     0.00003       1.88138
   552    H   13  dz2    Ryd( 4d)     0.00003       3.92380
 
   553    H   14  S      Val( 1S)     0.76370       0.05600
   554    H   14  S      Ryd( 4S)     0.00065       1.98378
   555    H   14  S      Ryd( 2S)     0.00014       0.54591
   556    H   14  S      Ryd( 3S)     0.00004       1.83115
   557    H   14  px     Ryd( 2p)     0.00077       0.94702
   558    H   14  px     Ryd( 4p)     0.00013       4.20084
   559    H   14  px     Ryd( 3p)     0.00006       3.02398
   560    H   14  py     Ryd( 2p)     0.00056       0.79354
   561    H   14  py     Ryd( 4p)     0.00016       4.30613
   562    H   14  py     Ryd( 3p)     0.00007       3.91897
   563    H   14  pz     Ryd( 2p)     0.00010       0.55173
   564    H   14  pz     Ryd( 4p)     0.00002       4.02047
   565    H   14  pz     Ryd( 3p)     0.00008       1.72254
   566    H   14  dxy    Ryd( 3d)     0.00008       2.28085
   567    H   14  dxy    Ryd( 4d)     0.00004       4.35338
   568    H   14  dxz    Ryd( 3d)     0.00001       1.32703
   569    H   14  dxz    Ryd( 4d)     0.00001       3.90484
   570    H   14  dyz    Ryd( 3d)     0.00001       1.43950
   571    H   14  dyz    Ryd( 4d)     0.00001       4.02656
   572    H   14  dx2y2  Ryd( 3d)     0.00004       2.09820
   573    H   14  dx2y2  Ryd( 4d)     0.00004       4.46674
   574    H   14  dz2    Ryd( 3d)     0.00003       1.87480
   575    H   14  dz2    Ryd( 4d)     0.00003       4.00544
 
   576    H   15  S      Val( 1S)     0.76522       0.05172
   577    H   15  S      Ryd( 4S)     0.00048       1.93448
   578    H   15  S      Ryd( 2S)     0.00013       0.63413
   579    H   15  S      Ryd( 3S)     0.00004       1.83497
   580    H   15  px     Ryd( 2p)     0.00048       1.02740
   581    H   15  px     Ryd( 4p)     0.00009       4.09450
   582    H   15  px     Ryd( 3p)     0.00006       2.64753
   583    H   15  py     Ryd( 2p)     0.00074       0.85192
   584    H   15  py     Ryd( 3p)     0.00019       4.17327
   585    H   15  py     Ryd( 4p)     0.00007       4.21172
   586    H   15  pz     Ryd( 2p)     0.00015       0.61855
   587    H   15  pz     Ryd( 4p)     0.00003       3.92485
   588    H   15  pz     Ryd( 3p)     0.00008       1.69643
   589    H   15  dxy    Ryd( 3d)     0.00008       2.24287
   590    H   15  dxy    Ryd( 4d)     0.00003       4.37942
   591    H   15  dxz    Ryd( 3d)     0.00001       1.32551
   592    H   15  dxz    Ryd( 4d)     0.00000       3.87385
   593    H   15  dyz    Ryd( 3d)     0.00001       1.48981
   594    H   15  dyz    Ryd( 4d)     0.00001       4.07308
   595    H   15  dx2y2  Ryd( 3d)     0.00004       2.22515
   596    H   15  dx2y2  Ryd( 4d)     0.00005       4.50574
   597    H   15  dz2    Ryd( 3d)     0.00003       1.95413
   598    H   15  dz2    Ryd( 4d)     0.00004       4.01047
 
   599    H   16  S      Val( 1S)     0.49294       0.11799
   600    H   16  S      Ryd( 4S)     0.00100       1.81483
   601    H   16  S      Ryd( 2S)     0.00016       0.99701
   602    H   16  S      Ryd( 3S)     0.00013       1.26639
   603    H   16  px     Ryd( 2p)     0.00026       2.68330
   604    H   16  px     Ryd( 4p)     0.00035       3.77315
   605    H   16  px     Ryd( 3p)     0.00003       3.07675
   606    H   16  py     Ryd( 2p)     0.00024       1.78290
   607    H   16  py     Ryd( 4p)     0.00003       3.04509
   608    H   16  py     Ryd( 3p)     0.00001       2.96983
   609    H   16  pz     Ryd( 2p)     0.00053       1.55404
   610    H   16  pz     Ryd( 4p)     0.00004       2.80468
   611    H   16  pz     Ryd( 3p)     0.00001       2.68558
   612    H   16  dxy    Ryd( 3d)     0.00006       1.21211
   613    H   16  dxy    Ryd( 4d)     0.00002       4.38633
   614    H   16  dxz    Ryd( 3d)     0.00009       1.11102
   615    H   16  dxz    Ryd( 4d)     0.00000       4.25991
   616    H   16  dyz    Ryd( 3d)     0.00006       1.12225
   617    H   16  dyz    Ryd( 4d)     0.00000       3.78682
   618    H   16  dx2y2  Ryd( 3d)     0.00005       1.88858
   619    H   16  dx2y2  Ryd( 4d)     0.00001       4.64147
   620    H   16  dz2    Ryd( 3d)     0.00011       1.62363
   621    H   16  dz2    Ryd( 4d)     0.00000       4.05503
 
   622    H   17  S      Val( 1S)     0.89233      -0.04126
   623    H   17  S      Ryd( 3S)     0.00106       0.98337
   624    H   17  S      Ryd( 4S)     0.00014       2.19063
   625    H   17  S      Ryd( 2S)     0.00005       0.94470
   626    H   17  px     Ryd( 2p)     0.00056       0.81475
   627    H   17  px     Ryd( 4p)     0.00006       4.00799
   628    H   17  px     Ryd( 3p)     0.00005       2.19070
   629    H   17  py     Ryd( 2p)     0.00068       1.09617
   630    H   17  py     Ryd( 4p)     0.00029       4.52626
   631    H   17  py     Ryd( 3p)     0.00002       3.45295
   632    H   17  pz     Ryd( 2p)     0.00013       0.62556
   633    H   17  pz     Ryd( 4p)     0.00000       3.72201
   634    H   17  pz     Ryd( 3p)     0.00002       1.74582
   635    H   17  dxy    Ryd( 3d)     0.00003       1.96062
   636    H   17  dxy    Ryd( 4d)     0.00007       4.30917
   637    H   17  dxz    Ryd( 3d)     0.00001       1.21146
   638    H   17  dxz    Ryd( 4d)     0.00000       3.78123
   639    H   17  dyz    Ryd( 3d)     0.00001       1.46097
   640    H   17  dyz    Ryd( 4d)     0.00001       4.01724
   641    H   17  dx2y2  Ryd( 3d)     0.00004       2.02598
   642    H   17  dx2y2  Ryd( 4d)     0.00003       4.35780
   643    H   17  dz2    Ryd( 3d)     0.00005       1.79781
   644    H   17  dz2    Ryd( 4d)     0.00001       3.97108

 WARNING:  Population inversion found on atom  C    1
           Population inversion found on atom  C    2
[...]
   zz         0.150186D+03      0.222553D+02      0.247624D+02

 ----------------------------------------------------------------------
 Unable to Open any file for archive entry.
 1\1\GINC-AE10\Freq\RM062X\Aug-CC-pVTZ\C8H6O3\AKJ\27-Apr-2023\0\\#N Geo
 m=AllCheck Guess=TCheck SCRF=Check GenChk RM062X/Aug-CC-pVTZ Freq\\CYH
 -217-A_eq00002\\0,1\C,-0.9119252601,-0.1241317413,-0.1059019599\C,-0.1
 851624638,-1.2026372217,-0.595990876\C,1.195055926,-1.1984683051,-0.48
 87339905\C,1.8423061491,-0.1210529751,0.1054850358\C,1.1121227271,0.95
 82387222,0.595712794\C,-0.2659716444,0.9581017499,0.4906491438\C,-2.39
 4357645,-0.1715428556,-0.2428028981\O,-3.0018019152,-1.0761576223,-0.7
 465792939\O,-3.0034007758,0.9162780188,0.260725514\C,3.3227045725,-0.1
 30777616,0.2133505264\O,3.9683250024,0.7526350559,0.7093146908\H,-0.71
 63584924,-2.0256301539,-1.0526824582\H,1.7762956624,-2.03110766,-0.865
 5669596\H,1.643281643,1.7818972846,1.0527504557\H,-0.8483388875,1.7867
 880292,0.865388458\H,-3.952917489,0.7958383059,0.127426377\H,3.8151428
 908,-1.0289710054,-0.2034445694\\Version=ES64L-G16RevC.01\State=1-A\HF
 =-534.1454808\RMSD=2.939e-09\RMSF=1.527e-05\ZeroPoint=0.1259183\Therma
 l=0.1350415\ETot=-534.0104393\HTot=-534.0094951\GTot=-534.0546891\Dipo
 le=-0.5156554,-0.1318725,-0.106008\DipoleDeriv=-0.5403377,0.0005838,-0
 .0389593,0.0323025,0.0469782,0.0389668,-0.022899,0.0365525,-0.0084405,
 -0.0218087,0.1955173,0.1040045,-0.0047417,-0.0550504,0.0168452,0.00275
 34,0.0321021,-0.0726292,0.0097817,-0.2114569,-0.0984757,0.0102,-0.0169
 56,0.0434767,0.0136197,0.0265909,-0.0868914,-0.7248741,-0.0293748,-0.0
 692333,0.1407677,0.0120601,0.0224474,0.0168215,0.0094847,-0.0050495,-0
 .0423797,0.199443,0.1038271,-0.0262914,-0.038206,0.019741,-0.0103462,0
 .0369361,-0.0633061,-0.0128472,-0.2092943,-0.1004923,0.0029942,-0.0501
 327,0.0169412,0.0068839,0.0007628,-0.0822704,2.1808943,-0.0760691,0.10
 21785,-0.150765,1.3979415,0.525759,0.0644487,0.5314584,0.6089278,-1.16
 06354,-0.3069586,-0.2157157,-0.2458774,-0.8460249,-0.2611865,-0.184887
 6,-0.2659001,-0.5149931,-0.9686229,0.4596174,0.1857731,0.4734743,-0.90
 19507,-0.2394626,0.1927336,-0.2404686,-0.4638622,1.8085409,0.1627217,0
 .205258,0.1693387,0.7558652,0.2967885,0.2085947,0.296286,0.3603229,-1.
 1143208,-0.2166624,-0.1692404,-0.4783007,-0.665468,-0.2054836,-0.30155
 37,-0.1855419,-0.4480576,0.0939281,-0.0278099,-0.0167271,-0.0193504,0.
 0601335,-0.036238,-0.0124485,-0.0368811,0.109268,0.0191418,0.0651666,0
 .0243828,0.0509109,0.0263176,-0.04942,0.01717,-0.0483368,0.108563,0.08
 18678,-0.0284389,-0.0178326,-0.0141559,0.054087,-0.0380252,-0.0106108,
 -0.039111,0.1065497,0.0776581,0.0318376,0.0122701,0.0359435,0.0503758,
 -0.0365216,0.0143492,-0.0368306,0.1104661,0.3607632,-0.070439,-0.03336
 01,-0.1021121,0.2933058,-0.0269422,-0.0493687,-0.0245288,0.3150297,-0.
 0467496,0.0616165,0.0223424,0.1256628,-0.1232762,-0.0876862,0.0547398,
 -0.0925746,0.0263729\Polar=150.2346626,2.686942,96.559067,8.4044622,19
 .8245928,68.4304497\Quadrupole=-3.0319527,2.6380003,0.3939524,-9.70025
 86,-5.1863648,0.263772\PG=C01 [X(C8H6O3)]\NImag=0\\0.64895288,-0.01872
 415,0.60489931,0.02867501,0.22949959,0.26654104,-0.17598651,0.04800146
 ,0.01585488,0.70659129,0.11224664,-0.24246895,-0.08099601,0.02177293,0
 .60839264,0.04834670,-0.08589100,-0.10516699,0.05404417,0.23768876,0.2
 6602748,-0.03253903,0.07486522,0.03497000,-0.34601960,-0.03399503,-0.0
 3865500,0.70372226,0.02337623,0.03138274,0.01490184,0.03399418,-0.1183
 3131,-0.02474080,-0.05005671,0.60462840,0.00892967,0.01882539,0.015638
 35,-0.00427037,-0.02992083,-0.07974788,0.01761336,0.23106654,0.2584205
 8,-0.00479924,0.00341135,0.00182627,-0.02341232,-0.02681150,-0.0158775
 5,-0.16750511,-0.09638848,-0.05664646,0.64184760,0.00380372,-0.0607341
 3,-0.02732641,-0.07579595,0.03219179,0.00695914,-0.03606131,-0.2431961
 6,-0.09345462,-0.01463409,0.60314337,0.00202517,-0.02735688,-0.0198106
 9,-0.04065193,0.01069145,0.00932321,-0.02613580,-0.09805048,-0.1154272
 9,0.03066910,0.23204706,0.26182347,-0.02407556,-0.07645993,-0.04094815
 ,-0.06396571,0.03162690,0.01141148,0.07411907,0.02501664,0.01785422,-0
 .17227543,0.04857756,0.01649422,0.70792788,-0.02657818,0.03250952,0.01
 146725,0.03185724,-0.01678511,-0.00413935,-0.02247438,-0.04541956,-0.0
 2763500,0.10495605,-0.23873535,-0.07921367,0.02169515,0.60320315,-0.01
 572023,0.00766767,0.00851316,0.01152838,-0.00415714,-0.00502598,-0.006
 16437,-0.02401679,-0.00678004,0.04500806,-0.08350867,-0.10510705,0.054
 12880,0.23516957,0.26454664,-0.16428471,-0.03050762,-0.02305940,0.0754
 1917,-0.02314203,-0.00641096,-0.06030431,-0.02954274,-0.01922194,-0.03
 338483,0.07320836,0.03401726,-0.35342460,-0.03204824,-0.03828131,0.708
 61386,-0.09460825,-0.23765366,-0.09497158,0.02682129,-0.04647193,-0.02
 446497,-0.03073670,-0.01650465,-0.00860775,0.02390846,0.03248875,0.015
 16721,0.03668074,-0.11945302,-0.02539456,-0.06145219,0.60665771,-0.055
 47904,-0.09008845,-0.11390892,0.01885820,-0.02827104,-0.00692012,-0.01
 982607,-0.00851718,-0.00993242,0.00908376,0.01892280,0.01636384,-0.003
 52104,-0.03063036,-0.07947746,0.01212045,0.23052917,0.25909785,-0.2039
 1719,-0.00103905,-0.00953054,-0.02664096,0.01346715,0.00458474,0.00278
 179,0.00273801,0.00094942,0.00670583,-0.00144135,-0.00014248,0.0033627
 5,-0.00086345,-0.00083243,-0.01397753,-0.01209891,-0.00725944,0.737771
 03,0.00923332,-0.09530827,-0.00418115,0.02218597,0.00978022,0.00533671
 ,0.00706229,-0.00276972,-0.00515791,-0.00060060,-0.00412231,-0.0016283
 2,-0.00457567,-0.00286854,-0.00612507,-0.02387809,0.00771001,0.0015778
 8,0.14910020,0.75247957,-0.00434505,-0.00496399,-0.08849204,0.00899576
 ,0.00467366,0.00561726,0.00313656,-0.00548748,0.00595593,0.00028267,-0
 .00169210,-0.00182760,-0.00270914,-0.00584203,0.00539241,-0.01321720,0
 .00247351,0.00123891,0.11519693,0.28272196,0.36759829,-0.03171351,-0.0
 4004300,-0.02432341,-0.00100244,-0.00295664,-0.00159113,0.00130170,-0.
 00060200,-0.00013336,-0.00270497,-0.00092257,-0.00068289,-0.00272859,-
 0.00162472,-0.00088942,-0.00600306,0.00632862,0.00256491,-0.29703635,-
 0.24538993,-0.14068959,0.29905906,-0.02316830,-0.00135583,-0.01343944,
 0.00457865,-0.00529867,-0.00246303,-0.00161441,0.00090235,0.00081226,-
 0.00038130,0.00057777,0.00019541,-0.00066064,0.00008397,0.00092241,-0.
 00051148,0.00237661,-0.00002223,-0.25351779,-0.45951132,-0.21157256,0.
 28738968,0.54571918,-0.01578667,-0.01472507,0.01307800,0.00221919,-0.0
 0303763,-0.00110516,-0.00064529,0.00088946,-0.00054619,-0.00040914,0.0
 0015422,0.00018087,-0.00040180,0.00084886,-0.00144092,-0.00089492,0.00
 049918,0.00252761,-0.14480208,-0.21095479,-0.19706939,0.16559627,0.281
 06432,0.18798662,-0.02998470,0.03879641,0.01642825,-0.00527674,-0.0047
 8941,-0.00292217,-0.00212972,0.00140464,0.00059059,-0.00223063,0.00147
 938,0.00057062,0.00095662,0.00018587,0.00022759,-0.00521232,0.00103601
 ,0.00009376,-0.17395270,0.07813445,0.03124081,0.03922019,-0.00399430,-
 0.00130366,0.66520503,0.01196674,-0.00149485,-0.00581604,-0.00029634,0
 .00154877,0.00011148,0.00004840,0.00060104,0.00058598,0.00115742,-0.00
 008611,-0.00000626,0.00067034,0.00061740,0.00076540,-0.00059626,-0.003
 13229,-0.00184585,0.05366032,-0.20612270,-0.06695580,0.00606435,-0.085
 78558,-0.05799676,-0.02465102,0.34193836,0.00286606,-0.00377166,0.0101
 2584,-0.00065019,-0.00023155,0.00111754,-0.00009593,0.00068960,-0.0002
 0925,0.00040745,0.00001830,0.00014102,0.00047236,0.00072859,-0.0003909
 8,-0.00073157,-0.00172096,-0.00049898,0.01886607,-0.06508681,-0.097067
 26,0.00378230,-0.05876540,0.00040878,0.03529901,0.15136061,0.11807013,
 0.00478516,-0.00066872,0.00007857,0.00318798,-0.00065395,-0.00076604,-
 0.01846130,-0.01326675,-0.00825085,-0.20235955,0.01877300,0.00016468,-
 0.02786177,0.01394855,0.00462150,0.00342252,0.00331111,0.00135552,-0.0
 0933891,0.00054714,-0.00032283,0.00390864,0.00118075,0.00088242,0.0031
 0344,-0.00179612,-0.00067758,0.65229853,-0.00065807,-0.00436811,-0.001
 91228,-0.00439846,-0.00217154,-0.00593586,-0.03010230,0.00063513,-0.00
 286566,0.04238387,-0.10465964,-0.00929069,0.02303300,0.01138654,0.0054
 5240,0.00777449,-0.00281100,-0.00467894,-0.00030885,-0.00062981,0.0004
 0203,0.00000572,0.00007885,-0.00004336,0.00039882,-0.00002306,-0.00002
 171,0.14272564,0.77386504,0.00008401,-0.00191316,-0.00164738,-0.002659
 76,-0.00565080,0.00584196,-0.01676566,-0.00158278,-0.00031135,0.012108
 08,-0.01108962,-0.08459321,0.00921595,0.00476012,0.00718548,0.00361291
 ,-0.00501891,0.00534848,-0.00075551,0.00046720,-0.00129240,0.00028809,
 0.00004617,0.00021074,0.00043199,-0.00018892,0.00001741,0.10722393,0.3
 0503322,0.35468994,-0.00230766,-0.00124522,-0.00081129,-0.00285676,-0.
 00155404,-0.00083798,-0.00507773,0.00752201,0.00322473,-0.04419580,-0.
 04485655,-0.02752650,0.00254028,-0.00365400,-0.00163327,0.00115022,-0.
 00110553,-0.00039707,0.00454302,-0.00050935,0.00006808,-0.00212481,-0.
 00049368,-0.00041163,-0.00165880,0.00099398,0.00037473,-0.29072607,-0.
 26640086,-0.15208058,0.32167773,-0.00058738,0.00092797,0.00038671,-0.0
 0023683,0.00016017,0.00116229,0.00207157,0.00476645,0.00128921,-0.0380
 9766,0.00522670,-0.01004244,0.00435133,-0.00658242,-0.00285617,-0.0026
 1284,0.00067169,0.00063416,0.00226929,-0.00016563,-0.00004723,-0.00089
 496,-0.00006043,-0.00009892,-0.00098610,0.00062003,0.00022941,-0.26079
 692,-0.48230494,-0.23194097,0.31675460,0.51016132,-0.00047858,0.000336
 57,0.00020860,-0.00017187,0.00106200,-0.00164951,0.00046833,0.00170434
 ,0.00342705,-0.02410867,-0.01055744,0.01216964,0.00241547,-0.00346588,
 -0.00184879,-0.00115945,0.00074898,-0.00068527,0.00147321,-0.00025897,
 0.00025102,-0.00061453,-0.00006833,-0.00008109,-0.00062641,0.00038040,
 0.00016214,-0.14924603,-0.23236706,-0.19186910,0.18292654,0.27035254,0
 .17398165,0.01298223,0.01188797,0.00662990,-0.12623170,-0.10728697,-0.
 06070149,-0.00865879,-0.02354656,-0.01292503,-0.00533745,0.00130864,-0
 .00031621,-0.00089429,0.00073842,0.00036764,-0.00170218,0.00336067,0.0
 0108518,0.00054222,0.00187816,0.00130780,-0.00197252,-0.00052621,-0.00
 039986,0.00046783,-0.00129948,-0.00062956,0.00062373,-0.00121751,-0.00
 057067,-0.00085997,-0.00022467,-0.00016466,0.12943651,-0.01268314,-0.0
 1431138,-0.01066988,-0.10551003,-0.22492940,-0.10071597,0.00233580,0.0
 0597984,0.00083257,0.00115179,0.00263849,-0.00237123,0.00065261,-0.000
 00629,0.00046005,0.00372545,-0.00102782,-0.00345468,-0.00202497,-0.003
 09438,0.00038493,-0.00058362,0.00192658,0.00104002,-0.00001791,0.00074
 184,0.00031866,0.00013874,0.00021409,0.00010332,0.00009906,-0.00003376
 ,0.00008640,0.11389285,0.23315834,-0.00579768,-0.00879754,-0.00001566,
 -0.05980199,-0.10085183,-0.09724000,0.00016437,-0.00113917,0.00412178,
 -0.00039546,-0.00235924,0.00627734,0.00032438,0.00046654,-0.00055698,0
 .00126959,-0.00348262,0.00469956,-0.00066536,0.00068218,-0.00386583,-0
 .00042882,0.00104429,0.00027779,0.00001809,0.00022131,0.00022206,0.000
 11531,0.,0.00003952,-0.00000095,0.00006176,-0.00015854,0.06533184,0.11
 245645,0.08980769,-0.00544191,-0.00084926,-0.00141167,-0.01110694,0.02
 524766,0.01158822,-0.13945776,0.11459507,0.05033208,0.01216174,-0.0095
 6985,-0.00419291,-0.00088874,-0.00253158,-0.00184142,-0.00089809,-0.00
 077715,-0.00040177,0.00069753,0.00150260,0.00080042,-0.00030435,-0.000
 33979,-0.00019944,-0.00087017,0.00013008,0.00000933,0.00024359,-0.0030
 0135,-0.00115682,0.00044015,0.00124792,0.00060300,0.00117303,-0.000515
 79,0.00014339,0.14415402,-0.00051663,0.00289527,-0.00234446,-0.0017514
 1,0.00472514,0.00003416,0.11568138,-0.22182535,-0.08346489,0.01377001,
 -0.01450639,-0.00814305,-0.00320154,-0.00127481,-0.00416359,-0.0008367
 4,-0.00008524,0.00028943,-0.00027898,0.00016178,-0.00002388,0.00011761
 ,0.00002020,-0.00000979,-0.00000136,-0.00003228,0.00004953,0.00301604,
 -0.00099967,0.00199855,-0.00066438,0.00066098,-0.00012569,0.00016353,-
 0.00042859,0.00188644,-0.12517860,0.23115086,-0.00124366,-0.00236979,0
 .00615961,-0.00206674,0.00209103,0.00529398,0.05088165,-0.08354771,-0.
 07774954,0.00761125,-0.00992109,-0.00076913,-0.00218018,-0.00411245,0.
 00422911,-0.00043198,0.00029397,-0.00066766,-0.00010064,0.00011188,0.0
 0021598,0.00003195,-0.00004464,0.00003711,-0.00005706,0.00005955,-0.00
 010468,0.00188650,0.00154017,-0.00357433,-0.00036416,0.00001995,0.0007
 9180,0.00048700,0.00183463,-0.00316887,-0.05434947,0.09394750,0.069913
 21,-0.00523322,0.00116182,-0.00039999,-0.00089057,0.00075712,0.0003800
 8,-0.00166340,0.00310013,0.00095368,0.01383465,0.01190681,0.00672304,-
 0.12616580,-0.10576984,-0.05991763,-0.00899547,-0.02376492,-0.01308515
 ,0.00071377,-0.00132591,-0.00062374,-0.00083388,-0.00019760,-0.0001476
 2,-0.00017097,0.00025724,0.00011557,0.00049308,0.00029729,0.00049762,-
 0.00106509,-0.00039214,-0.00027677,-0.00000542,-0.00011037,0.00002325,
 0.00037640,0.00090088,0.00045316,0.12830415,0.00115403,0.00263696,-0.0
 0248780,0.00058957,0.00001258,0.00048279,0.00370186,-0.00111311,-0.003
 51689,-0.01202256,-0.01475130,-0.01071932,-0.10548970,-0.22380878,-0.1
 0006314,0.00243772,0.00585477,0.00062066,0.00013930,0.00023774,0.00007
 977,0.00010537,-0.00001888,0.00010401,-0.00003234,-0.00000306,-0.00001
 362,-0.00245332,-0.00232215,0.00069430,-0.00025139,0.00195912,0.000989
 57,-0.00011255,-0.00021229,0.00041165,-0.00067575,-0.00063395,-0.00057
 883,0.11331788,0.23248688,-0.00040407,-0.00248720,0.00644120,0.0002953
 0,0.00049561,-0.00058011,0.00125812,-0.00356273,0.00469236,-0.00537928
 ,-0.00889632,-0.00027702,-0.05977600,-0.10008437,-0.09702325,0.0001670
 9,-0.00137565,0.00431169,0.00011722,-0.00003191,0.00009370,0.00000561,
 0.00008091,-0.00016728,-0.00003086,0.00000845,0.00002095,-0.00089364,0
 .00090384,-0.00367547,-0.00020560,0.00097887,0.00044397,0.00002212,0.0
 0041180,-0.00083322,-0.00034423,-0.00045871,0.00015052,0.06496259,0.11
 211575,0.08952998,0.01202623,-0.01115910,-0.00502404,-0.00095538,-0.00
 300156,-0.00207727,-0.00090924,-0.00084639,-0.00043687,-0.00539479,-0.
 00052326,-0.00128858,-0.01077623,0.02407714,0.01095763,-0.14138421,0.1
 2106761,0.05361665,0.00174881,-0.00118017,-0.00016237,0.00002600,0.000
 78806,0.00035607,-0.00402522,-0.00016147,-0.00040524,0.00023931,0.0016
 4313,0.00085780,-0.00007871,-0.00043931,-0.00023910,0.00063392,-0.0006
 9713,-0.00033662,0.00000209,0.00004948,0.00010871,0.00114337,-0.000491
 07,0.00017463,0.14820211,0.01407655,-0.01385072,-0.00790067,-0.0032344
 9,-0.00105088,-0.00400701,-0.00072741,0.00004799,0.00037017,-0.0006587
 5,0.00276910,-0.00271755,-0.00208894,0.00578666,0.00012178,0.11899873,
 -0.22786324,-0.08521133,0.00170150,-0.00262218,0.00080197,-0.00020511,
 0.00086302,0.00012620,0.00058041,0.00116256,0.00052231,-0.00022720,0.0
 0013083,0.00010570,0.00008308,0.00003880,-0.00004652,0.00081999,-0.000
 60316,-0.00045719,0.00005379,-0.00022667,0.00044392,0.00019045,-0.0004
 8276,0.00199957,-0.12916485,0.23546582,0.00773899,-0.00982379,-0.00048
 729,-0.00219516,-0.00398925,0.00420018,-0.00037658,0.00036108,-0.00063
 956,-0.00135692,-0.00270735,0.00657058,-0.00227613,0.00211516,0.006127
 58,0.05257032,-0.08505306,-0.08046308,0.00129495,0.00058207,-0.0035577
 5,-0.00014607,0.00020214,0.00067349,-0.00003013,0.00046585,0.00045034,
 -0.00008812,0.00024818,0.00000641,0.00002511,-0.00008631,0.00010155,0.
 00043072,-0.00057274,0.00016742,0.00011089,0.00044360,-0.00086351,0.00
 051922,0.00194765,-0.00338319,-0.05611218,0.09545132,0.07127567,0.0015
 7448,0.00280179,0.00118593,-0.00068664,-0.00029084,-0.00023541,0.00012
 910,0.00039922,0.00024219,0.00040041,-0.00015217,-0.00004743,-0.000041
 63,-0.00008218,-0.00005162,0.00094351,0.00017879,0.00017445,-0.0344766
 5,0.00780674,0.00099750,0.00316719,-0.00837526,-0.00355176,-0.48330206
 ,-0.04616801,-0.05900215,-0.00054961,-0.00004416,-0.00006358,0.0002907
 1,0.00014250,0.00009583,-0.00008830,0.00013800,0.00004842,-0.00003451,
 -0.00003503,-0.00001552,0.00000867,0.00000521,0.00000150,-0.00000438,-
 0.00012699,-0.00005564,0.51263834,0.00141814,-0.00394615,-0.00420964,0
 .00110289,0.00053430,0.00011665,0.00018670,-0.00044460,-0.00000915,-0.
 00030206,-0.00007395,-0.00006680,-0.00011930,0.00029300,0.00009332,-0.
 00069958,-0.00040676,-0.00017923,0.04909925,0.00685566,0.00507943,-0.0
 0708053,-0.00066253,0.00205333,-0.08770381,-0.05048093,-0.02428208,0.0
 0027350,0.00006164,0.00005615,-0.00015229,-0.00009535,-0.00004910,0.00
 009139,-0.00003446,-0.00010748,0.00009896,-0.00000023,0.00003927,-0.00
 000879,0.00000916,-0.00000788,-0.00002157,0.00045860,0.00028923,0.0438
 4183,0.04791125,0.00048760,-0.00410428,0.00255608,0.00046911,0.0000103
 2,0.00051085,0.00013477,0.00000745,-0.00038469,-0.00012308,-0.00005557
 ,-0.00002479,-0.00007057,0.00009619,0.00013370,-0.00026951,-0.00011212
 ,-0.00023529,0.02187135,0.00193072,0.00685889,-0.00289647,0.00195516,-
 0.00502441,-0.08000080,-0.02111545,-0.03245422,0.00009693,0.00003192,0
 .00001537,-0.00005320,-0.00002661,-0.00003871,0.00002487,-0.00010395,0
 .00014127,0.00005219,0.00002906,-0.00004431,-0.00000557,-0.00000680,0.
 00001953,-0.00000235,0.00028112,0.00002559,0.06029684,0.02118838,0.027
 92256,-0.00003773,-0.00022996,-0.00014034,-0.00016616,-0.00063642,-0.0
 0028037,0.00067208,0.00210352,0.00119494,-0.01135011,0.02489963,0.0103
 2064,-0.00580824,-0.00183183,-0.00150788,0.00002204,0.00185034,0.00101
 671,0.00047356,0.00000886,0.00004339,-0.00025830,-0.00015639,-0.000100
 09,-0.00013906,0.00001984,-0.00000065,-0.12300877,0.08786960,0.0397321
 9,0.02030928,-0.02156839,-0.01089633,-0.00010885,0.00000868,-0.0000117
 8,-0.00024607,-0.00123426,-0.00065081,0.00014971,0.00007776,0.00002951
 ,-0.00049368,-0.00007077,-0.00005328,0.00003137,-0.00002472,-0.0000121
 1,0.11995893,0.00024872,0.00024027,-0.00000003,0.00031933,0.00016219,0
 .00046601,-0.00018496,0.00066054,0.00085056,-0.00084196,0.00182937,-0.
 00849443,0.00029147,0.00105365,-0.00036746,-0.00031690,-0.00034993,0.0
 0032519,-0.00060168,-0.00001013,-0.00003218,0.00029173,0.00014470,0.00
 008671,0.00016026,-0.00006915,-0.00002322,0.09594851,-0.18608222,-0.05
 587956,-0.00456543,-0.03595068,-0.02872183,0.00007233,0.00002236,-0.00
 003555,0.00056305,0.00039895,0.00019264,-0.00032005,0.00014906,-0.0000
 9005,0.00006047,-0.00002377,0.00012621,-0.00003940,0.00002136,-0.00000
 552,-0.09108550,0.21780342,0.00010174,-0.00003643,0.00026710,0.0002030
 4,0.00039324,-0.00049671,0.00003755,0.00102482,-0.00052784,-0.00270008
 ,-0.00653309,0.01498683,-0.00043387,-0.00052917,0.00152338,-0.00007939
 ,0.00049018,-0.00079874,-0.00026540,0.00001433,-0.00005011,0.00012656,
 0.00005257,0.00005344,0.00007038,-0.00003393,-0.00001084,0.04381973,-0
 .05649623,-0.08639209,-0.00229697,-0.03001626,0.00479358,0.00002042,-0
 .00004040,0.00008467,0.00025821,0.00005578,0.00015071,-0.00017174,-0.0
 0005974,0.00023562,0.00001312,0.00011622,-0.00020444,-0.00001955,-0.00
 000439,0.00002260,-0.03868374,0.09160251,0.06636283\\-0.00000322,0.000
 00744,-0.00000490,0.00000601,-0.00001091,-0.00000614,-0.00000575,-0.00
 001598,-0.00000782,0.00001814,-0.00000498,-0.00000309,0.00002719,0.000
 00843,0.00000681,-0.00002747,0.00000346,-0.00000050,-0.00000497,0.0000
 4972,0.00005252,-0.00001061,-0.00002057,-0.00002147,0.00000925,-0.0000
 3315,-0.00002484,-0.00001880,-0.00000182,0.00000433,0.00001440,0.00001
 260,0.00000520,0.00000252,0.00000588,0.00000329,-0.00000481,0.00000859
 ,0.00000386,-0.00000567,-0.00000523,-0.00000300,0.00000620,-0.00000757
 ,-0.00000357,0.00000374,0.00000564,0.00000312,-0.00000614,-0.00000156,
 -0.00000381\\\@
 The archive entry for this job was punched.


 WE ARE PERHAPS NOT FAR REMOVED FROM THE TIME WHEN WE SHALL BE ABLE TO SUBMIT
 THE BULK OF CHEMICAL PHENOMENA TO CALCULATION.

            -- JOSEPH LOUIS GAY-LUSSAC
               MEMOIRES DE LA SOCIETE D'ARCUEIL, 2, 207 (1808)
 Job cpu time:       0 days 14 hours 44 minutes 22.1 seconds.
 Elapsed time:       0 days  0 hours 44 minutes 14.1 seconds.
 File lengths (MBytes):  RWF=    490 Int=      0 D2E=      0 Chk=     38 Scr=      1
 Normal termination of Gaussian 16 at Thu Apr 27 14:04:12 2023.
