 Entering Gaussian System, Link 0=g16
 Initial command:
 /usr/local/gaussian16c01/g16/l1.exe "/scr/akj/Gau-64068.inp" -scrdir="/scr/akj/"
 Entering Link 1 = /usr/local/gaussian16c01/g16/l1.exe PID=     64069.
  
 Copyright (c) 1988-2019, Gaussian, Inc.  All Rights Reserved.
  
 This is part of the Gaussian(R) 16 program.  It is based on
 the Gaussian(R) 09 system (copyright 2009, Gaussian, Inc.),
 the Gaussian(R) 03 system (copyright 2003, Gaussian, Inc.),
 the Gaussian(R) 98 system (copyright 1998, Gaussian, Inc.),
 the Gaussian(R) 94 system (copyright 1995, Gaussian, Inc.),
 the Gaussian 92(TM) system (copyright 1992, Gaussian, Inc.),
 the Gaussian 90(TM) system (copyright 1990, Gaussian, Inc.),
 the Gaussian 88(TM) system (copyright 1988, Gaussian, Inc.),
 the Gaussian 86(TM) system (copyright 1986, Carnegie Mellon
 University), and the Gaussian 82(TM) system (copyright 1983,
 Carnegie Mellon University). Gaussian is a federally registered
 trademark of Gaussian, Inc.
  
 This software contains proprietary and confidential information,
 including trade secrets, belonging to Gaussian, Inc.
  
 This software is provided under written license and may be
 used, copied, transmitted, or stored only in accord with that
 written license.
  
 The following legend is applicable only to US Government
 contracts under FAR:
  
                    RESTRICTED RIGHTS LEGEND
  
 Use, reproduction and disclosure by the US Government is
 subject to restrictions as set forth in subparagraphs (a)
 and (c) of the Commercial Computer Software - Restricted
 Rights clause in FAR 52.227-19.
  
 Gaussian, Inc.
 340 Quinnipiac St., Bldg. 40, Wallingford CT 06492
  
  
 ---------------------------------------------------------------
 Warning -- This program may not be used in any manner that
 competes with the business of Gaussian, Inc. or will provide
 assistance to any competitor of Gaussian, Inc.  The licensee
 of this program is prohibited from giving any competitor of
 Gaussian, Inc. access to this program.  By using this program,
 the user acknowledges that Gaussian, Inc. is engaged in the
 business of creating and licensing software in the field of
 computational chemistry and represents and warrants to the
 licensee that it is not a competitor of Gaussian, Inc. and that
 it will not use this program in any manner prohibited above.
 ---------------------------------------------------------------
  

 Cite this work as:
 Gaussian 16, Revision C.01,
 M. J. Frisch, G. W. Trucks, H. B. Schlegel, G. E. Scuseria, 
 M. A. Robb, J. R. Cheeseman, G. Scalmani, V. Barone, 
 G. A. Petersson, H. Nakatsuji, X. Li, M. Caricato, A. V. Marenich, 
 J. Bloino, B. G. Janesko, R. Gomperts, B. Mennucci, H. P. Hratchian, 
 J. V. Ortiz, A. F. Izmaylov, J. L. Sonnenberg, D. Williams-Young, 
 F. Ding, F. Lipparini, F. Egidi, J. Goings, B. Peng, A. Petrone, 
 T. Henderson, D. Ranasinghe, V. G. Zakrzewski, J. Gao, N. Rega, 
 G. Zheng, W. Liang, M. Hada, M. Ehara, K. Toyota, R. Fukuda, 
 J. Hasegawa, M. Ishida, T. Nakajima, Y. Honda, O. Kitao, H. Nakai, 
 T. Vreven, K. Throssell, J. A. Montgomery, Jr., J. E. Peralta, 
 F. Ogliaro, M. J. Bearpark, J. J. Heyd, E. N. Brothers, K. N. Kudin, 
 V. N. Staroverov, T. A. Keith, R. Kobayashi, J. Normand, 
 K. Raghavachari, A. P. Rendell, J. C. Burant, S. S. Iyengar, 
 J. Tomasi, M. Cossi, J. M. Millam, M. Klene, C. Adamo, R. Cammi, 
 J. W. Ochterski, R. L. Martin, K. Morokuma, O. Farkas, 
 J. B. Foresman, and D. J. Fox, Gaussian, Inc., Wallingford CT, 2019.
 
 ******************************************
 Gaussian 16:  ES64L-G16RevC.01  3-Jul-2019
                11-May-2023 
 ******************************************
 %nprocshared=20
 Will use up to   20 processors via shared memory.
 %mem=10000MW
 %chk=CYH-243-A_eq00002_2.chk
 ------------------------------------------
 # opt=tight freq aug-cc-pvtz pop=nbo m062x
 ------------------------------------------
 1/7=10,18=20,19=15,26=3,38=1/1,3;
 2/9=110,12=2,17=6,18=5,40=1/2;
 3/5=16,6=1,7=10,11=2,25=1,30=1,71=1,74=-55/1,2,3;
 4//1;
 5/5=2,38=5/2;
 6/7=2,8=2,9=2,10=2,28=1,40=1/1,7;
 7//1,2,3,16;
 1/7=10,18=20,19=15,26=3/3(2);
 2/9=110/2;
 99//99;
 2/9=110/2;
 3/5=16,6=1,7=10,11=2,25=1,30=1,71=1,74=-55/1,2,3;
 4/5=5,16=3,69=1/1;
 5/5=2,38=5/2;
 7//1,2,3,16;
 1/7=10,18=20,19=15,26=3/3(-5);
 2/9=110/2;
 6/7=2,8=2,9=2,10=2,19=2,28=1,40=1/1,7;
 99/9=1/99;
 -------------------
 CYH-243-A_eq00002_2
 -------------------
 Symbolic Z-matrix:
 Charge =  0 Multiplicity = 1
 C                    -3.51172   0.87511  -1.09144 
 C                    -3.49842   0.49792  -2.42734 
 C                    -3.40491   1.44242  -3.44013 
 C                    -3.33099   2.7806   -3.08948 
 C                    -3.33409   3.1791   -1.75928 
 C                    -3.41591   2.22623  -0.76626 
 C                    -3.59325  -0.10112   0.03929 
 O                    -3.24205   3.8235   -3.99376 
 O                    -3.25405   0.16631   1.15342 
 O                    -4.07823  -1.32671  -0.24605 
 F                    -2.19341   2.83887  -5.69647 
 C                    -3.2315    3.58838  -5.32167 
 F                    -3.14867   4.75323  -5.93333 
 F                    -4.3388    2.97025  -5.73664 
 H                    -3.52204  -0.54598  -2.71461 
 H                    -3.38422   1.1249   -4.47026 
 H                    -3.2688    4.23284  -1.53013 
 H                    -3.40737   2.50896   0.27684 
 H                    -4.09466  -1.88559   0.53607 
 

 GradGradGradGradGradGradGradGradGradGradGradGradGradGradGradGradGradGrad
 Berny optimization.
 Initialization pass.
                           ----------------------------
                           !    Initial Parameters    !
                           ! (Angstroms and Degrees)  !
 --------------------------                            --------------------------
 ! Name  Definition              Value          Derivative Info.                !
 --------------------------------------------------------------------------------
 ! R1    R(1,2)                  1.3882         estimate D2E/DX2                !
 ! R2    R(1,6)                  1.393          estimate D2E/DX2                !
 ! R3    R(1,7)                  1.4961         estimate D2E/DX2                !
 ! R4    R(2,3)                  1.388          estimate D2E/DX2                !
 ! R5    R(2,15)                 1.083          estimate D2E/DX2                !
 ! R6    R(3,4)                  1.3853         estimate D2E/DX2                !
 ! R7    R(3,16)                 1.0782         estimate D2E/DX2                !
 ! R8    R(4,5)                  1.3886         estimate D2E/DX2                !
 ! R9    R(4,8)                  1.3832         estimate D2E/DX2                !
 ! R10   R(5,6)                  1.3787         estimate D2E/DX2                !
 ! R11   R(5,17)                 1.0803         estimate D2E/DX2                !
 ! R12   R(6,18)                 1.0808         estimate D2E/DX2                !
 ! R13   R(7,9)                  1.1949         estimate D2E/DX2                !
 ! R14   R(7,10)                 1.3486         estimate D2E/DX2                !
 ! R15   R(8,12)                 1.3486         estimate D2E/DX2                !
 ! R16   R(10,19)                0.9614         estimate D2E/DX2                !
 ! R17   R(11,12)                1.3341         estimate D2E/DX2                !
 ! R18   R(12,13)                1.3183         estimate D2E/DX2                !
 ! R19   R(12,14)                1.3343         estimate D2E/DX2                !
 ! A1    A(2,1,6)              119.1787         estimate D2E/DX2                !
 ! A2    A(2,1,7)              123.405          estimate D2E/DX2                !
 ! A3    A(6,1,7)              117.4013         estimate D2E/DX2                !
 ! A4    A(1,2,3)              121.1938         estimate D2E/DX2                !
 ! A5    A(1,2,15)             121.1295         estimate D2E/DX2                !
 ! A6    A(3,2,15)             117.6355         estimate D2E/DX2                !
 ! A7    A(2,3,4)              118.4386         estimate D2E/DX2                !
 ! A8    A(2,3,16)             119.8718         estimate D2E/DX2                !
 ! A9    A(4,3,16)             121.6881         estimate D2E/DX2                !
 ! A10   A(3,4,5)              121.3029         estimate D2E/DX2                !
 ! A11   A(3,4,8)              124.4903         estimate D2E/DX2                !
 ! A12   A(5,4,8)              114.2059         estimate D2E/DX2                !
 ! A13   A(4,5,6)              119.4562         estimate D2E/DX2                !
 ! A14   A(4,5,17)             118.8796         estimate D2E/DX2                !
 ! A15   A(6,5,17)             121.6639         estimate D2E/DX2                !
 ! A16   A(1,6,5)              120.4182         estimate D2E/DX2                !
 ! A17   A(1,6,18)             118.6581         estimate D2E/DX2                !
 ! A18   A(5,6,18)             120.9237         estimate D2E/DX2                !
 ! A19   A(1,7,9)              122.9007         estimate D2E/DX2                !
 ! A20   A(1,7,10)             116.917          estimate D2E/DX2                !
 ! A21   A(9,7,10)             120.1821         estimate D2E/DX2                !
 ! A22   A(4,8,12)             120.8485         estimate D2E/DX2                !
 ! A23   A(7,10,19)            111.2429         estimate D2E/DX2                !
 ! A24   A(8,12,11)            112.3745         estimate D2E/DX2                !
 ! A25   A(8,12,13)            107.6559         estimate D2E/DX2                !
 ! A26   A(8,12,14)            112.3645         estimate D2E/DX2                !
 ! A27   A(11,12,13)           108.4926         estimate D2E/DX2                !
 ! A28   A(11,12,14)           107.3432         estimate D2E/DX2                !
 ! A29   A(13,12,14)           108.4925         estimate D2E/DX2                !
 ! D1    D(6,1,2,3)             -0.6419         estimate D2E/DX2                !
 ! D2    D(6,1,2,15)           176.9661         estimate D2E/DX2                !
 ! D3    D(7,1,2,3)           -179.1968         estimate D2E/DX2                !
 ! D4    D(7,1,2,15)            -1.5888         estimate D2E/DX2                !
 ! D5    D(2,1,6,5)              1.2034         estimate D2E/DX2                !
 ! D6    D(2,1,6,18)          -178.8052         estimate D2E/DX2                !
 ! D7    D(7,1,6,5)            179.8445         estimate D2E/DX2                !
 ! D8    D(7,1,6,18)            -0.1641         estimate D2E/DX2                !
 ! D9    D(2,1,7,9)            159.4475         estimate D2E/DX2                !
 ! D10   D(2,1,7,10)           -20.6945         estimate D2E/DX2                !
 ! D11   D(6,1,7,9)            -19.1313         estimate D2E/DX2                !
 ! D12   D(6,1,7,10)           160.7268         estimate D2E/DX2                !
 ! D13   D(1,2,3,4)             -0.3098         estimate D2E/DX2                !
 ! D14   D(1,2,3,16)           179.2521         estimate D2E/DX2                !
 ! D15   D(15,2,3,4)          -177.9987         estimate D2E/DX2                !
 ! D16   D(15,2,3,16)            1.5632         estimate D2E/DX2                !
 ! D17   D(2,3,4,5)              0.727          estimate D2E/DX2                !
 ! D18   D(2,3,4,8)           -179.6346         estimate D2E/DX2                !
 ! D19   D(16,3,4,5)          -178.8266         estimate D2E/DX2                !
 ! D20   D(16,3,4,8)             0.8119         estimate D2E/DX2                !
 ! D21   D(3,4,5,6)             -0.1776         estimate D2E/DX2                !
 ! D22   D(3,4,5,17)           179.6303         estimate D2E/DX2                !
 ! D23   D(8,4,5,6)           -179.8509         estimate D2E/DX2                !
 ! D24   D(8,4,5,17)            -0.043          estimate D2E/DX2                !
 ! D25   D(3,4,8,12)             0.5013         estimate D2E/DX2                !
 ! D26   D(5,4,8,12)          -179.8374         estimate D2E/DX2                !
 ! D27   D(4,5,6,1)             -0.8015         estimate D2E/DX2                !
 ! D28   D(4,5,6,18)           179.2072         estimate D2E/DX2                !
 ! D29   D(17,5,6,1)           179.3961         estimate D2E/DX2                !
 ! D30   D(17,5,6,18)           -0.5951         estimate D2E/DX2                !
 ! D31   D(1,7,10,19)          180.0            estimate D2E/DX2                !
 ! D32   D(9,7,10,19)           -0.1379         estimate D2E/DX2                !
 ! D33   D(4,8,12,11)          -60.9838         estimate D2E/DX2                !
 ! D34   D(4,8,12,13)          179.6107         estimate D2E/DX2                !
 ! D35   D(4,8,12,14)           60.2114         estimate D2E/DX2                !
 --------------------------------------------------------------------------------
 Trust Radius=3.00D-01 FncErr=1.00D-07 GrdErr=1.00D-06 EigMax=2.50D+02 EigMin=1.00D-04
 Number of steps in this run=     93 maximum allowed number of steps=    114.
 GradGradGradGradGradGradGradGradGradGradGradGradGradGradGradGradGradGrad

                          Input orientation:                          
 ---------------------------------------------------------------------
 Center     Atomic      Atomic             Coordinates (Angstroms)
 Number     Number       Type             X           Y           Z
 ---------------------------------------------------------------------
      1          6           0       -3.511717    0.875106   -1.091444
      2          6           0       -3.498417    0.497915   -2.427342
      3          6           0       -3.404909    1.442420   -3.440131
      4          6           0       -3.330989    2.780596   -3.089483
      5          6           0       -3.334086    3.179104   -1.759279
      6          6           0       -3.415909    2.226234   -0.766256
      7          6           0       -3.593252   -0.101120    0.039289
      8          8           0       -3.242048    3.823504   -3.993763
      9          8           0       -3.254052    0.166314    1.153422
     10          8           0       -4.078227   -1.326708   -0.246045
     11          9           0       -2.193409    2.838866   -5.696468
     12          6           0       -3.231497    3.588381   -5.321668
     13          9           0       -3.148672    4.753228   -5.933327
     14          9           0       -4.338801    2.970251   -5.736637
     15          1           0       -3.522039   -0.545983   -2.714610
     16          1           0       -3.384224    1.124904   -4.470259
     17          1           0       -3.268800    4.232839   -1.530126
     18          1           0       -3.407374    2.508961    0.276844
     19          1           0       -4.094660   -1.885593    0.536067
 ---------------------------------------------------------------------
                    Distance matrix (angstroms):
                    1          2          3          4          5
     1  C    0.000000
     2  C    1.388190   0.000000
     3  C    2.418591   1.388011   0.000000
     4  C    2.766896   2.382665   1.385327   0.000000
     5  C    2.405404   2.768048   2.417922   1.388618   0.000000
     6  C    1.393009   2.398562   2.786411   2.389961   1.378677
     7  C    1.496069   2.540099   3.811083   4.261723   3.749918
     8  O    4.145989   3.684961   2.450019   1.383217   2.327367
     9  O    2.368164   3.604378   4.769898   4.984239   4.191318
    10  O    2.425617   2.902324   4.280609   5.051084   4.811026
    11  F    5.176923   4.227326   2.916993   2.844970   4.113194
    12  C    5.033407   4.242564   2.859266   2.375935   3.587289
    13  F    6.214134   5.524666   4.152485   3.465828   4.464853
    14  F    5.162511   4.215462   2.912106   2.838851   4.107608
    15  H    2.157375   1.082961   2.119869   3.353081   3.850228
    16  H    3.390434   2.140015   1.078151   2.156546   3.401715
    17  H    3.394971   3.848036   3.384240   2.131777   1.080338
    18  H    2.133679   3.371233   3.866964   3.378132   2.144822
    19  H    3.257311   3.849469   5.230830   5.958282   5.612330
                    6          7          8          9         10
     6  C    0.000000
     7  C    2.469197   0.000000
     8  O    3.605315   5.638397   0.000000
     9  O    2.820396   1.194935   6.314166   0.000000
    10  O    3.651395   1.348585   6.424116   2.206102   0.000000
    11  F    5.116328   6.595604   2.228983   7.428896   7.114187
    12  C    4.758280   6.517910   1.348602   7.323786   7.115968
    13  F    5.758101   7.709376   2.152908   8.442327   8.377044
    14  F    5.109792   6.584108   2.229017   7.517423   6.976987
    15  H    3.390064   2.790508   4.561473   3.942189   2.648149
    16  H    3.864398   4.677911   2.744031   5.706279   4.933156
    17  H    2.152116   4.620772   2.497554   4.872194   5.763038
    18  H    1.080771   2.627453   4.471402   2.505972   3.928844
    19  H    4.366220   1.918995   7.337581   2.301754   0.961417
                   11         12         13         14         15
    11  F    0.000000
    12  C    1.334120   0.000000
    13  F    2.152536   1.318277   0.000000
    14  F    2.149786   1.334318   2.152696   0.000000
    15  H    4.702545   4.896339   6.211374   4.707828   0.000000
    16  H    2.420598   2.610928   3.919284   2.433153   2.427583
    17  H    4.523056   3.846103   4.435472   4.520372   4.929936
    18  H    6.104343   5.704333   6.608319   6.102646   4.277222
    19  H    8.048588   8.063653   9.317827   7.936349   3.562212
                   16         17         18         19
    16  H    0.000000
    17  H    4.279833   0.000000
    18  H    4.944809   2.501219   0.000000
    19  H    5.884820   6.510485   4.455521   0.000000
 Stoichiometry    C8H5F3O3
 Framework group  C1[X(C8H5F3O3)]
 Deg. of freedom    51
 Full point group                 C1      NOp   1
 Largest Abelian subgroup         C1      NOp   1
 Largest concise Abelian subgroup C1      NOp   1
                         Standard orientation:                         
 ---------------------------------------------------------------------
 Center     Atomic      Atomic             Coordinates (Angstroms)
 Number     Number       Type             X           Y           Z
 ---------------------------------------------------------------------
      1          6           0       -2.090672    0.058664    0.002029
      2          6           0       -1.202466   -1.003410    0.102835
      3          6           0        0.169985   -0.796718    0.087661
      4          6           0        0.640475    0.500234   -0.037584
      5          6           0       -0.230411    1.577760   -0.131166
      6          6           0       -1.590609    1.354595   -0.102736
      7          6           0       -3.577441   -0.105431    0.030517
      8          8           0        1.978801    0.847863   -0.073989
      9          8           0       -4.324008    0.787885    0.299765
     10          8           0       -4.062601   -1.327647   -0.268630
     11          9           0        2.887865   -0.780543    1.146774
     12          6           0        2.940404   -0.094474    0.003785
     13          9           0        4.106164    0.517360   -0.063435
     14          9           0        2.867753   -0.977540   -0.993872
     15          1           0       -1.556161   -2.018470    0.234577
     16          1           0        0.840472   -1.636018    0.179488
     17          1           0        0.179167    2.573352   -0.221579
     18          1           0       -2.289670    2.176773   -0.161057
     19          1           0       -5.022968   -1.341260   -0.225846
 ---------------------------------------------------------------------
 Rotational constants (GHZ):           2.2298696           0.2966212           0.2752827
 Standard basis: Aug-CC-pVTZ (5D, 7F)
 There are   895 symmetry adapted cartesian basis functions of A   symmetry.
 There are   759 symmetry adapted basis functions of A   symmetry.
   759 basis functions,  1143 primitive gaussians,   895 cartesian basis functions
    52 alpha electrons       52 beta electrons
       nuclear repulsion energy       899.0587516936 Hartrees.
 NAtoms=   19 NActive=   19 NUniq=   19 SFac= 1.00D+00 NAtFMM=   60 NAOKFM=F Big=F
 Integral buffers will be    131072 words long.
 Raffenetti 2 integral format.
 Two-electron integral symmetry is turned on.
 One-electron integrals computed using PRISM.
 NBasis=   759 RedAO= T EigKep=  1.15D-06  NBF=   759
 NBsUse=   757 1.00D-06 EigRej=  6.96D-07 NBFU=   757
 ExpMin= 2.53D-02 ExpMax= 1.95D+04 ExpMxC= 6.65D+02 IAcc=3 IRadAn=         5 AccDes= 0.00D+00
 Harris functional with IExCor= 1009 and IRadAn=       5 diagonalized for initial guess.
 HarFok:  IExCor= 1009 AccDes= 0.00D+00 IRadAn=         5 IDoV= 1 UseB2=F ITyADJ=14
 ICtDFT=  3500011 ScaDFX=  1.000000  1.000000  1.000000  1.000000
 FoFCou: FMM=F IPFlag=           0 FMFlag=      100000 FMFlg1=           0
         NFxFlg=           0 DoJE=T BraDBF=F KetDBF=T FulRan=T
         wScrn=  0.000000 ICntrl=       500 IOpCl=  0 I1Cent=   200000004 NGrid=           0
         NMat0=    1 NMatS0=      1 NMatT0=    0 NMatD0=    1 NMtDS0=    0 NMtDT0=    0
 Petite list used in FoFCou.
 Requested convergence on RMS density matrix=1.00D-08 within 128 cycles.
 Requested convergence on MAX density matrix=1.00D-06.
 Requested convergence on             energy=1.00D-06.
 No special actions if energy rises.
 SCF Done:  E(RM062X) =  -833.133182481     A.U. after   13 cycles
            NFock= 13  Conv=0.96D-08     -V/T= 2.0047

 **********************************************************************

            Population analysis using the SCF Density.

 **********************************************************************

 Orbital symmetries:
       Occupied  (A) (A) (A) (A) (A) (A) (A) (A) (A) (A) (A) (A)
                 (A) (A) (A) (A) (A) (A) (A) (A) (A) (A) (A) (A)
                 (A) (A) (A) (A) (A) (A) (A) (A) (A) (A) (A) (A)
                 (A) (A) (A) (A) (A) (A) (A) (A) (A) (A) (A) (A)
                 (A) (A) (A) (A)
       Virtual   (A) (A) (A) (A) (A) (A) (A) (A) (A) (A) (A) (A)
                 (A) (A) (A) (A) (A) (A) (A) (A) (A) (A) (A) (A)
                 (A) (A) (A) (A) (A) (A) (A) (A) (A) (A) (A) (A)
                 (A) (A) (A) (A) (A) (A) (A) (A) (A) (A) (A) (A)
                 (A) (A) (A) (A) (A) (A) (A) (A) (A) (A) (A) (A)
                 (A) (A) (A) (A) (A) (A) (A) (A) (A) (A) (A) (A)
                 (A) (A) (A) (A) (A) (A) (A) (A) (A) (A) (A) (A)
                 (A) (A) (A) (A) (A) (A) (A) (A) (A) (A) (A) (A)
                 (A) (A) (A) (A) (A) (A) (A) (A) (A) (A) (A) (A)
                 (A) (A) (A) (A) (A) (A) (A) (A) (A) (A) (A) (A)
                 (A) (A) (A) (A) (A) (A) (A) (A) (A) (A) (A) (A)
                 (A) (A) (A) (A) (A) (A) (A) (A) (A) (A) (A) (A)
                 (A) (A) (A) (A) (A) (A) (A) (A) (A) (A) (A) (A)
                 (A) (A) (A) (A) (A) (A) (A) (A) (A) (A) (A) (A)
                 (A) (A) (A) (A) (A) (A) (A) (A) (A) (A) (A) (A)
                 (A) (A) (A) (A) (A) (A) (A) (A) (A) (A) (A) (A)
                 (A) (A) (A) (A) (A) (A) (A) (A) (A) (A) (A) (A)
                 (A) (A) (A) (A) (A) (A) (A) (A) (A) (A) (A) (A)
                 (A) (A) (A) (A) (A) (A) (A) (A) (A) (A) (A) (A)
                 (A) (A) (A) (A) (A) (A) (A) (A) (A) (A) (A) (A)
                 (A) (A) (A) (A) (A) (A) (A) (A) (A) (A) (A) (A)
                 (A) (A) (A) (A) (A) (A) (A) (A) (A) (A) (A) (A)
                 (A) (A) (A) (A) (A) (A) (A) (A) (A) (A) (A) (A)
                 (A) (A) (A) (A) (A) (A) (A) (A) (A) (A) (A) (A)
                 (A) (A) (A) (A) (A) (A) (A) (A) (A) (A) (A) (A)
                 (A) (A) (A) (A) (A) (A) (A) (A) (A) (A) (A) (A)
                 (A) (A) (A) (A) (A) (A) (A) (A) (A) (A) (A) (A)
                 (A) (A) (A) (A) (A) (A) (A) (A) (A) (A) (A) (A)
                 (A) (A) (A) (A) (A) (A) (A) (A) (A) (A) (A) (A)
                 (A) (A) (A) (A) (A) (A) (A) (A) (A) (A) (A) (A)
                 (A) (A) (A) (A) (A) (A) (A) (A) (A) (A) (A) (A)
                 (A) (A) (A) (A) (A) (A) (A) (A) (A) (A) (A) (A)
                 (A) (A) (A) (A) (A) (A) (A) (A) (A) (A) (A) (A)
                 (A) (A) (A) (A) (A) (A) (A) (A) (A) (A) (A) (A)
                 (A) (A) (A) (A) (A) (A) (A) (A) (A) (A) (A) (A)
                 (A) (A) (A) (A) (A) (A) (A) (A) (A) (A) (A) (A)
                 (A) (A) (A) (A) (A) (A) (A) (A) (A) (A) (A) (A)
                 (A) (A) (A) (A) (A) (A) (A) (A) (A) (A) (A) (A)
                 (A) (A) (A) (A) (A) (A) (A) (A) (A) (A) (A) (A)
                 (A) (A) (A) (A) (A) (A) (A) (A) (A) (A) (A) (A)
                 (A) (A) (A) (A) (A) (A) (A) (A) (A) (A) (A) (A)
                 (A) (A) (A) (A) (A) (A) (A) (A) (A) (A) (A) (A)
                 (A) (A) (A) (A) (A) (A) (A) (A) (A) (A) (A) (A)
                 (A) (A) (A) (A) (A) (A) (A) (A) (A) (A) (A) (A)
                 (A) (A) (A) (A) (A) (A) (A) (A) (A) (A) (A) (A)
                 (A) (A) (A) (A) (A) (A) (A) (A) (A) (A) (A) (A)
                 (A) (A) (A) (A) (A) (A) (A) (A) (A) (A) (A) (A)
                 (A) (A) (A) (A) (A) (A) (A) (A) (A) (A) (A) (A)
                 (A) (A) (A) (A) (A) (A) (A) (A) (A) (A) (A) (A)
                 (A) (A) (A) (A) (A) (A) (A) (A) (A) (A) (A) (A)
                 (A) (A) (A) (A) (A) (A) (A) (A) (A) (A) (A) (A)
                 (A) (A) (A) (A) (A) (A) (A) (A) (A) (A) (A) (A)
                 (A) (A) (A) (A) (A) (A) (A) (A) (A) (A) (A) (A)
                 (A) (A) (A) (A) (A) (A) (A) (A) (A) (A) (A) (A)
                 (A) (A) (A) (A) (A) (A) (A) (A) (A) (A) (A) (A)
                 (A) (A) (A) (A) (A) (A) (A) (A) (A) (A) (A) (A)
                 (A) (A) (A) (A) (A) (A) (A) (A) (A) (A) (A) (A)
                 (A) (A) (A) (A) (A) (A) (A) (A) (A) (A) (A) (A)
                 (A) (A) (A) (A) (A) (A) (A) (A) (A)
 The electronic state is 1-A.
 Alpha  occ. eigenvalues --  -25.30479 -25.30368 -25.30356 -19.71607 -19.68115
 Alpha  occ. eigenvalues --  -19.62528 -10.86956 -10.69181 -10.64744 -10.57940
 Alpha  occ. eigenvalues --  -10.57824 -10.57422 -10.57352 -10.57027  -1.50834
 Alpha  occ. eigenvalues --   -1.40880  -1.40462  -1.26107  -1.25159  -1.15440
 Alpha  occ. eigenvalues --   -1.00248  -0.90988  -0.88256  -0.83894  -0.78317
 Alpha  occ. eigenvalues --   -0.74986  -0.73506  -0.73392  -0.71596  -0.67770
 Alpha  occ. eigenvalues --   -0.63264  -0.61520  -0.60779  -0.59412  -0.58354
 Alpha  occ. eigenvalues --   -0.57432  -0.56740  -0.55806  -0.54946  -0.54273
 Alpha  occ. eigenvalues --   -0.54078  -0.52308  -0.51926  -0.50860  -0.49686
 Alpha  occ. eigenvalues --   -0.46701  -0.45212  -0.43259  -0.41129  -0.37255
 Alpha  occ. eigenvalues --   -0.34142  -0.32467
 Alpha virt. eigenvalues --   -0.03020  -0.01032  -0.00781  -0.00014   0.00466
 Alpha virt. eigenvalues --    0.01742   0.02411   0.02573   0.03467   0.03791
 Alpha virt. eigenvalues --    0.04202   0.05364   0.05639   0.06209   0.06441
 Alpha virt. eigenvalues --    0.07641   0.07762   0.08023   0.08544   0.08607
 Alpha virt. eigenvalues --    0.09012   0.09180   0.09381   0.10176   0.10349
 Alpha virt. eigenvalues --    0.10427   0.10760   0.11536   0.12445   0.13024
 Alpha virt. eigenvalues --    0.13252   0.13831   0.14158   0.14290   0.16168
 Alpha virt. eigenvalues --    0.16474   0.17148   0.17299   0.17770   0.17826
 Alpha virt. eigenvalues --    0.18410   0.18910   0.19029   0.19382   0.19656
 Alpha virt. eigenvalues --    0.20262   0.20555   0.21131   0.21175   0.21836
 Alpha virt. eigenvalues --    0.22093   0.22655   0.22936   0.22943   0.23245
 Alpha virt. eigenvalues --    0.23561   0.23918   0.24350   0.24615   0.24660
 Alpha virt. eigenvalues --    0.25101   0.25843   0.26238   0.26599   0.27003
 Alpha virt. eigenvalues --    0.27288   0.27727   0.28559   0.28665   0.29304
 Alpha virt. eigenvalues --    0.29424   0.30367   0.30701   0.31271   0.31468
 Alpha virt. eigenvalues --    0.31833   0.32379   0.32434   0.32892   0.33113
 Alpha virt. eigenvalues --    0.33982   0.34481   0.34744   0.35160   0.36132
 Alpha virt. eigenvalues --    0.36577   0.36752   0.37100   0.37387   0.37894
 Alpha virt. eigenvalues --    0.38248   0.38801   0.39130   0.39345   0.39669
 Alpha virt. eigenvalues --    0.40273   0.40993   0.41264   0.41668   0.41958
 Alpha virt. eigenvalues --    0.42684   0.42904   0.43395   0.44052   0.45105
 Alpha virt. eigenvalues --    0.45702   0.46107   0.46568   0.46943   0.47399
 Alpha virt. eigenvalues --    0.47976   0.48053   0.49145   0.49945   0.50977
 Alpha virt. eigenvalues --    0.51202   0.51927   0.52680   0.53506   0.53827
 Alpha virt. eigenvalues --    0.54675   0.55453   0.55626   0.56296   0.56656
 Alpha virt. eigenvalues --    0.57057   0.58619   0.58759   0.59754   0.60326
 Alpha virt. eigenvalues --    0.61325   0.61653   0.62534   0.63372   0.63884
 Alpha virt. eigenvalues --    0.64712   0.65174   0.65969   0.66691   0.67815
 Alpha virt. eigenvalues --    0.68195   0.68856   0.69251   0.69561   0.70195
 Alpha virt. eigenvalues --    0.70300   0.71941   0.72140   0.72293   0.73058
 Alpha virt. eigenvalues --    0.73559   0.74274   0.75030   0.75335   0.76015
 Alpha virt. eigenvalues --    0.76850   0.76917   0.77097   0.77697   0.77820
 Alpha virt. eigenvalues --    0.78720   0.79568   0.79789   0.80197   0.81235
 Alpha virt. eigenvalues --    0.81733   0.82306   0.82874   0.83224   0.83801
 Alpha virt. eigenvalues --    0.84319   0.84631   0.85196   0.85873   0.86551
 Alpha virt. eigenvalues --    0.87249   0.87648   0.87906   0.88630   0.89427
 Alpha virt. eigenvalues --    0.89663   0.90096   0.90302   0.91859   0.92189
 Alpha virt. eigenvalues --    0.92572   0.92966   0.93261   0.94120   0.94964
 Alpha virt. eigenvalues --    0.95339   0.96032   0.96404   0.96559   0.96794
 Alpha virt. eigenvalues --    0.98413   0.98606   0.98890   0.99540   1.00288
 Alpha virt. eigenvalues --    1.00682   1.01867   1.01999   1.02542   1.03297
 Alpha virt. eigenvalues --    1.03792   1.04132   1.04940   1.05581   1.06207
 Alpha virt. eigenvalues --    1.06528   1.06695   1.07308   1.07849   1.08551
 Alpha virt. eigenvalues --    1.09513   1.09879   1.10507   1.11300   1.12098
 Alpha virt. eigenvalues --    1.12538   1.12861   1.14149   1.14774   1.15192
 Alpha virt. eigenvalues --    1.15967   1.16221   1.17697   1.18010   1.19157
 Alpha virt. eigenvalues --    1.19406   1.20583   1.21196   1.21911   1.22844
 Alpha virt. eigenvalues --    1.23832   1.24621   1.25438   1.26166   1.26469
 Alpha virt. eigenvalues --    1.27284   1.27482   1.28880   1.29223   1.30756
 Alpha virt. eigenvalues --    1.31423   1.32752   1.33686   1.33857   1.34968
 Alpha virt. eigenvalues --    1.35154   1.36276   1.36715   1.37201   1.37929
 Alpha virt. eigenvalues --    1.38818   1.39586   1.40851   1.42395   1.43811
 Alpha virt. eigenvalues --    1.44383   1.44774   1.45431   1.46064   1.46785
 Alpha virt. eigenvalues --    1.47200   1.48264   1.49666   1.50008   1.50473
 Alpha virt. eigenvalues --    1.51530   1.51899   1.52603   1.53944   1.54464
 Alpha virt. eigenvalues --    1.55624   1.55883   1.56447   1.57117   1.59348
 Alpha virt. eigenvalues --    1.60220   1.60532   1.60678   1.61780   1.62172
 Alpha virt. eigenvalues --    1.62541   1.63887   1.64689   1.64954   1.66069
 Alpha virt. eigenvalues --    1.66173   1.67132   1.68385   1.68501   1.69178
 Alpha virt. eigenvalues --    1.70316   1.70915   1.71562   1.73093   1.73653
 Alpha virt. eigenvalues --    1.74648   1.75096   1.76723   1.77911   1.79608
 Alpha virt. eigenvalues --    1.79923   1.80318   1.80709   1.81826   1.83699
 Alpha virt. eigenvalues --    1.83878   1.84870   1.85760   1.86322   1.87040
 Alpha virt. eigenvalues --    1.88575   1.89457   1.90669   1.91524   1.92589
 Alpha virt. eigenvalues --    1.94250   1.95150   1.95605   1.96296   1.98104
 Alpha virt. eigenvalues --    1.98696   1.99584   2.02401   2.03867   2.04307
 Alpha virt. eigenvalues --    2.05417   2.07750   2.10073   2.10777   2.11433
 Alpha virt. eigenvalues --    2.12984   2.14170   2.15379   2.15773   2.17087
 Alpha virt. eigenvalues --    2.17598   2.18012   2.19198   2.21815   2.23411
 Alpha virt. eigenvalues --    2.25835   2.26330   2.26900   2.28870   2.29848
 Alpha virt. eigenvalues --    2.30677   2.32414   2.34125   2.34808   2.36035
 Alpha virt. eigenvalues --    2.36179   2.37702   2.39036   2.40361   2.41121
 Alpha virt. eigenvalues --    2.42074   2.42577   2.43945   2.44988   2.45828
 Alpha virt. eigenvalues --    2.46573   2.47403   2.48617   2.49513   2.52101
 Alpha virt. eigenvalues --    2.53406   2.54078   2.54508   2.55944   2.57200
 Alpha virt. eigenvalues --    2.57951   2.58528   2.60342   2.61564   2.63400
 Alpha virt. eigenvalues --    2.63769   2.64553   2.65704   2.66461   2.67987
 Alpha virt. eigenvalues --    2.70248   2.70991   2.72014   2.72743   2.73089
 Alpha virt. eigenvalues --    2.74475   2.75010   2.76501   2.77142   2.78345
 Alpha virt. eigenvalues --    2.81506   2.83262   2.84898   2.85897   2.86383
 Alpha virt. eigenvalues --    2.86896   2.89054   2.90016   2.91538   2.92505
 Alpha virt. eigenvalues --    2.93087   2.93566   2.94580   2.95681   2.97225
 Alpha virt. eigenvalues --    2.98089   2.99456   3.00171   3.00417   3.02310
 Alpha virt. eigenvalues --    3.02614   3.03627   3.06224   3.07460   3.08445
 Alpha virt. eigenvalues --    3.09066   3.09390   3.10516   3.11290   3.12014
 Alpha virt. eigenvalues --    3.12731   3.13788   3.14066   3.15394   3.16504
 Alpha virt. eigenvalues --    3.16771   3.17260   3.19393   3.19451   3.20524
 Alpha virt. eigenvalues --    3.22116   3.22610   3.23295   3.24257   3.24651
 Alpha virt. eigenvalues --    3.25293   3.26380   3.26561   3.27771   3.29037
 Alpha virt. eigenvalues --    3.31089   3.32418   3.32875   3.35374   3.35596
 Alpha virt. eigenvalues --    3.36534   3.38220   3.38872   3.41372   3.41846
 Alpha virt. eigenvalues --    3.42559   3.43033   3.44193   3.46238   3.46305
 Alpha virt. eigenvalues --    3.46833   3.47923   3.50028   3.50584   3.50920
 Alpha virt. eigenvalues --    3.53222   3.53716   3.54367   3.55486   3.56127
 Alpha virt. eigenvalues --    3.58264   3.58794   3.59296   3.61727   3.62765
 Alpha virt. eigenvalues --    3.63418   3.64226   3.64625   3.66098   3.66339
 Alpha virt. eigenvalues --    3.67591   3.68349   3.68950   3.69267   3.70971
 Alpha virt. eigenvalues --    3.73086   3.73861   3.74926   3.76632   3.77453
 Alpha virt. eigenvalues --    3.78674   3.79909   3.80124   3.81020   3.82612
 Alpha virt. eigenvalues --    3.84462   3.85049   3.86574   3.87033   3.89030
 Alpha virt. eigenvalues --    3.89891   3.91590   3.92013   3.92645   3.93823
 Alpha virt. eigenvalues --    3.94043   3.94940   3.95728   3.97635   3.98027
 Alpha virt. eigenvalues --    3.98928   4.00299   4.03435   4.03769   4.04025
 Alpha virt. eigenvalues --    4.05286   4.06553   4.07401   4.09290   4.09625
 Alpha virt. eigenvalues --    4.10887   4.12941   4.14697   4.15066   4.16417
 Alpha virt. eigenvalues --    4.19236   4.20306   4.21667   4.23430   4.23967
 Alpha virt. eigenvalues --    4.24685   4.27894   4.28537   4.30817   4.32220
 Alpha virt. eigenvalues --    4.32763   4.33840   4.37519   4.37914   4.38725
 Alpha virt. eigenvalues --    4.39724   4.41130   4.42024   4.43253   4.45067
 Alpha virt. eigenvalues --    4.47976   4.48372   4.48845   4.51533   4.52230
 Alpha virt. eigenvalues --    4.53112   4.54298   4.57109   4.58129   4.60001
 Alpha virt. eigenvalues --    4.61385   4.62288   4.64665   4.65416   4.68154
 Alpha virt. eigenvalues --    4.70234   4.70495   4.72861   4.73977   4.77002
 Alpha virt. eigenvalues --    4.77472   4.78077   4.80362   4.82355   4.83654
 Alpha virt. eigenvalues --    4.84840   4.87139   4.89366   4.90547   4.94505
 Alpha virt. eigenvalues --    4.95199   4.97186   5.01600   5.03509   5.05076
 Alpha virt. eigenvalues --    5.07803   5.09080   5.10958   5.11689   5.20046
 Alpha virt. eigenvalues --    5.24980   5.30060   5.30772   5.33020   5.35039
 Alpha virt. eigenvalues --    5.37737   5.38867   5.41326   5.44045   5.46035
 Alpha virt. eigenvalues --    5.49411   5.51915   5.58013   5.61116   5.67271
 Alpha virt. eigenvalues --    5.68304   5.72116   5.77219   5.83879   5.87385
 Alpha virt. eigenvalues --    5.89151   5.94296   5.97098   6.03431   6.10262
 Alpha virt. eigenvalues --    6.17602   6.21165   6.24855   6.32126   6.35302
 Alpha virt. eigenvalues --    6.38067   6.41840   6.43479   6.45298   6.45904
 Alpha virt. eigenvalues --    6.46481   6.53457   6.55409   6.55768   6.57652
 Alpha virt. eigenvalues --    6.60761   6.65138   6.71007   6.73210   6.77100
 Alpha virt. eigenvalues --    6.78777   6.82240   6.85071   6.85404   6.85780
 Alpha virt. eigenvalues --    6.88264   6.89150   6.93633   6.97588   7.00586
 Alpha virt. eigenvalues --    7.03262   7.09800   7.11338   7.15579   7.26389
 Alpha virt. eigenvalues --    7.30315   7.31801   7.34962   7.36861   7.44402
 Alpha virt. eigenvalues --    7.55004   7.74483   7.78257   7.92048   8.02078
 Alpha virt. eigenvalues --    8.42173   8.43434   8.43627   8.45551   8.50549
 Alpha virt. eigenvalues --    8.55637   8.56037   8.65403   8.74660   8.75628
 Alpha virt. eigenvalues --    8.76192   8.78386   8.78509   8.81351   8.83048
 Alpha virt. eigenvalues --    8.84140   8.86175   8.86906   8.90585   8.91375
 Alpha virt. eigenvalues --    8.94230   8.95733   8.98313   8.98631   9.03110
 Alpha virt. eigenvalues --    9.04318   9.05157   9.10363   9.12404   9.13619
 Alpha virt. eigenvalues --    9.17084   9.28683   9.32856   9.37843   9.50875
 Alpha virt. eigenvalues --    9.55925  14.88747  15.07332  15.36710  15.48954
 Alpha virt. eigenvalues --   15.54244  15.92198  16.22610  16.46363  17.79508
 Alpha virt. eigenvalues --   18.09109  18.77898  19.09618  19.67382  19.74976
          Condensed to atoms (all electrons):
               1          2          3          4          5          6
     1  C    6.716242  -0.547084   0.093324  -0.428668   0.219892  -0.544320
     2  C   -0.547084   8.254058  -0.143523  -0.035920  -0.419874   0.224299
     3  C    0.093324  -0.143523   7.403715  -0.183318   0.117910  -0.462445
     4  C   -0.428668  -0.035920  -0.183318   6.527867  -0.360442   0.073070
     5  C    0.219892  -0.419874   0.117910  -0.360442   7.387159  -0.275076
     6  C   -0.544320   0.224299  -0.462445   0.073070  -0.275076   7.878371
     7  C   -0.448172  -0.558618   0.055177   0.044043  -0.080491  -0.297048
     8  O    0.013313   0.049991  -0.143925  -0.175579  -0.149130   0.015487
     9  O   -0.099646   0.063747  -0.008820   0.002599  -0.015355   0.062300
    10  O   -0.060473  -0.000460   0.006352  -0.006516  -0.001382   0.012387
    11  F   -0.003634   0.005824   0.008547   0.054616  -0.006374   0.002256
    12  C    0.020414   0.020046   0.010481   0.007346  -0.055169  -0.010172
    13  F   -0.000773  -0.004550   0.011000  -0.031105  -0.011376   0.002815
    14  F   -0.002327   0.004070   0.007234   0.051727  -0.002345   0.000750
    15  H   -0.172975   0.420777  -0.540880  -0.091039   0.121685   0.013535
    16  H   -0.102213  -0.727094   0.007269  -0.133570  -0.102772   0.099552
    17  H    0.058862   0.022842  -0.058545  -0.294393   0.507740  -0.580396
    18  H   -0.311750  -0.011842   0.068394   0.010105  -0.452904   0.530340
    19  H   -0.029353  -0.017510   0.000874   0.000967  -0.002640  -0.015851
               7          8          9         10         11         12
     1  C   -0.448172   0.013313  -0.099646  -0.060473  -0.003634   0.020414
     2  C   -0.558618   0.049991   0.063747  -0.000460   0.005824   0.020046
     3  C    0.055177  -0.143925  -0.008820   0.006352   0.008547   0.010481
     4  C    0.044043  -0.175579   0.002599  -0.006516   0.054616   0.007346
     5  C   -0.080491  -0.149130  -0.015355  -0.001382  -0.006374  -0.055169
     6  C   -0.297048   0.015487   0.062300   0.012387   0.002256  -0.010172
     7  C    6.705058   0.002854  -0.118770   0.073558   0.000942   0.001471
     8  O    0.002854   9.300942   0.000083   0.000595  -0.039364   0.296187
     9  O   -0.118770   0.000083   9.133814  -0.098135  -0.000034   0.000078
    10  O    0.073558   0.000595  -0.098135   8.430975   0.000019   0.000258
    11  F    0.000942  -0.039364  -0.000034   0.000019   9.184495   0.218826
    12  C    0.001471   0.296187   0.000078   0.000258   0.218826   4.395536
    13  F   -0.000089  -0.054964   0.000005   0.000001  -0.059043   0.263292
    14  F    0.000549  -0.037840  -0.000011   0.000008  -0.019006   0.217471
    15  H   -0.035894   0.005329   0.012468  -0.004397  -0.000323   0.003804
    16  H   -0.036303  -0.170946   0.001668  -0.002172  -0.074475  -0.129544
    17  H   -0.015612  -0.225527  -0.002746  -0.000528  -0.001411   0.001563
    18  H    0.129910   0.021033  -0.003490   0.001602   0.000150   0.001309
    19  H    0.142324  -0.000017  -0.111842   0.164792   0.000019  -0.000009
              13         14         15         16         17         18
     1  C   -0.000773  -0.002327  -0.172975  -0.102213   0.058862  -0.311750
     2  C   -0.004550   0.004070   0.420777  -0.727094   0.022842  -0.011842
     3  C    0.011000   0.007234  -0.540880   0.007269  -0.058545   0.068394
     4  C   -0.031105   0.051727  -0.091039  -0.133570  -0.294393   0.010105
     5  C   -0.011376  -0.002345   0.121685  -0.102772   0.507740  -0.452904
     6  C    0.002815   0.000750   0.013535   0.099552  -0.580396   0.530340
     7  C   -0.000089   0.000549  -0.035894  -0.036303  -0.015612   0.129910
     8  O   -0.054964  -0.037840   0.005329  -0.170946  -0.225527   0.021033
     9  O    0.000005  -0.000011   0.012468   0.001668  -0.002746  -0.003490
    10  O    0.000001   0.000008  -0.004397  -0.002172  -0.000528   0.001602
    11  F   -0.059043  -0.019006  -0.000323  -0.074475  -0.001411   0.000150
    12  C    0.263292   0.217471   0.003804  -0.129544   0.001563   0.001309
    13  F    9.205234  -0.061396  -0.000067   0.014821  -0.005664   0.000090
    14  F   -0.061396   9.186910   0.000679  -0.072218  -0.000550   0.000002
    15  H   -0.000067   0.000679   1.665925  -0.349490   0.000378  -0.001967
    16  H    0.014821  -0.072218  -0.349490   2.311144   0.028384  -0.007431
    17  H   -0.005664  -0.000550   0.000378   0.028384   1.376489  -0.217921
    18  H    0.000090   0.000002  -0.001967  -0.007431  -0.217921   1.243888
    19  H   -0.000003   0.000023  -0.010977  -0.000648  -0.000037   0.001156
              19
     1  C   -0.029353
     2  C   -0.017510
     3  C    0.000874
     4  C    0.000967
     5  C   -0.002640
     6  C   -0.015851
     7  C    0.142324
     8  O   -0.000017
     9  O   -0.111842
    10  O    0.164792
    11  F    0.000019
    12  C   -0.000009
    13  F   -0.000003
    14  F    0.000023
    15  H   -0.010977
    16  H   -0.000648
    17  H   -0.000037
    18  H    0.001156
    19  H    0.610254
 Mulliken charges:
               1
     1  C    1.629341
     2  C   -0.599178
     3  C   -0.248822
     4  C    0.968211
     5  C   -0.419056
     6  C   -0.729854
     7  C    0.435111
     8  O   -0.708523
     9  O   -0.817913
    10  O   -0.516483
    11  F   -0.272028
    12  C    0.736811
    13  F   -0.268230
    14  F   -0.273729
    15  H   -0.036570
    16  H    0.446037
    17  H    0.407071
    18  H   -0.000673
    19  H    0.268478
 Sum of Mulliken charges =   0.00000
 Mulliken charges with hydrogens summed into heavy atoms:
               1
     1  C    1.629341
     2  C   -0.635748
     3  C    0.197214
     4  C    0.968211
     5  C   -0.011985
     6  C   -0.730527
     7  C    0.435111
     8  O   -0.708523
     9  O   -0.817913
    10  O   -0.248005
    11  F   -0.272028
    12  C    0.736811
    13  F   -0.268230
    14  F   -0.273729
 Electronic spatial extent (au):  <R**2>=           3568.7859
 Charge=              0.0000 electrons
 Dipole moment (field-independent basis, Debye):
    X=             -0.3901    Y=             -1.0992    Z=             -0.3262  Tot=              1.2112
 Quadrupole moment (field-independent basis, Debye-Ang):
   XX=            -82.2166   YY=            -73.2211   ZZ=            -79.9564
   XY=              7.3525   XZ=              2.2693   YZ=             -1.8637
 Traceless Quadrupole moment (field-independent basis, Debye-Ang):
   XX=             -3.7519   YY=              5.2436   ZZ=             -1.4917
   XY=              7.3525   XZ=              2.2693   YZ=             -1.8637
 Octapole moment (field-independent basis, Debye-Ang**2):
  XXX=             14.7658  YYY=             -3.6543  ZZZ=              0.2932  XYY=             13.8520
  XXY=            -52.7954  XXZ=            -12.2659  XZZ=             16.4970  YZZ=             -2.4466
  YYZ=              0.1552  XYZ=              4.3232
 Hexadecapole moment (field-independent basis, Debye-Ang**3):
 XXXX=          -3292.1191 YYYY=           -461.6463 ZZZZ=           -150.8410 XXXY=            265.6661
 XXXZ=             70.3117 YYYX=             -4.6824 YYYZ=             -5.1949 ZZZX=             -0.4966
 ZZZY=              2.3655 XXYY=           -654.9555 XXZZ=           -606.7429 YYZZ=           -114.6340
 XXYZ=            -12.2741 YYXZ=              2.5867 ZZXY=              3.5327
 N-N= 8.990587516936D+02 E-N=-3.758347689510D+03  KE= 8.291959191873D+02
 ******************************Gaussian NBO Version 3.1******************************
             N A T U R A L   A T O M I C   O R B I T A L   A N D
          N A T U R A L   B O N D   O R B I T A L   A N A L Y S I S
 ******************************Gaussian NBO Version 3.1******************************
       /RESON  / : Allow strongly delocalized NBO set

 Analyzing the SCF density

 Job title: CYH-243-A_eq00002_2                                             

 Storage needed:   1731399 in NPA,   2307008 in NBO (********** available)
 GSVD:  LWork=       -2799 too small for GESVD, short by     1155735 words or     1155735 for optimal perf.


 NATURAL POPULATIONS:  Natural atomic orbital occupancies 
                                                          
   NAO  Atom  No  lang   Type(AO)    Occupancy      Energy
 ----------------------------------------------------------
     1    C    1  S      Cor( 1S)     1.99897     -10.42862
     2    C    1  S      Val( 2S)     0.93139      -0.20135
     3    C    1  S      Ryd( 3S)     0.00135       1.78996
     4    C    1  S      Ryd( 4S)     0.00010       2.54515
     5    C    1  S      Ryd( 5S)     0.00003       3.44059
     6    C    1  px     Val( 2p)     1.05907      -0.10667
     7    C    1  px     Ryd( 4p)     0.00587       2.15592
     8    C    1  px     Ryd( 5p)     0.00005       2.71813
     9    C    1  px     Ryd( 3p)     0.00005       1.06486
    10    C    1  py     Val( 2p)     1.09478      -0.10358
    11    C    1  py     Ryd( 4p)     0.00533       1.90838
    12    C    1  py     Ryd( 5p)     0.00007       2.20307
    13    C    1  py     Ryd( 3p)     0.00002       1.08172
    14    C    1  pz     Val( 2p)     1.07369      -0.14635
    15    C    1  pz     Ryd( 4p)     0.00115       0.87814
    16    C    1  pz     Ryd( 5p)     0.00009       2.01471
    17    C    1  pz     Ryd( 3p)     0.00001       0.61500
    18    C    1  dxy    Ryd( 3d)     0.00087       2.78337
    19    C    1  dxy    Ryd( 4d)     0.00039       3.73453
    20    C    1  dxy    Ryd( 5d)     0.00008       4.65974
    21    C    1  dxz    Ryd( 3d)     0.00016       1.48744
    22    C    1  dxz    Ryd( 5d)     0.00012       2.92402
    23    C    1  dxz    Ryd( 4d)     0.00006       2.23029
    24    C    1  dyz    Ryd( 3d)     0.00038       1.34649
    25    C    1  dyz    Ryd( 5d)     0.00009       2.90905
    26    C    1  dyz    Ryd( 4d)     0.00003       2.41015
    27    C    1  dx2y2  Ryd( 3d)     0.00177       3.23728
    28    C    1  dx2y2  Ryd( 5d)     0.00022       3.89745
    29    C    1  dx2y2  Ryd( 4d)     0.00003       3.84401
    30    C    1  dz2    Ryd( 3d)     0.00094       1.70442
    31    C    1  dz2    Ryd( 4d)     0.00014       3.68112
    32    C    1  dz2    Ryd( 5d)     0.00006       4.02047
    33    C    1  f(0)   Ryd( 4f)     0.00047       1.44137
    34    C    1  f(0)   Ryd( 5f)     0.00017       3.53899
    35    C    1  f(C1)  Ryd( 4f)     0.00027       1.91518
    36    C    1  f(C1)  Ryd( 5f)     0.00038       3.63616
    37    C    1  f(S1)  Ryd( 4f)     0.00053       1.79641
    38    C    1  f(S1)  Ryd( 5f)     0.00025       3.64426
    39    C    1  f(C2)  Ryd( 4f)     0.00046       1.39594
    40    C    1  f(C2)  Ryd( 5f)     0.00003       3.57275
    41    C    1  f(S2)  Ryd( 4f)     0.00065       1.37596
    42    C    1  f(S2)  Ryd( 5f)     0.00003       3.60440
    43    C    1  f(C3)  Ryd( 4f)     0.00093       2.89132
    44    C    1  f(C3)  Ryd( 5f)     0.00014       4.22963
    45    C    1  f(S3)  Ryd( 4f)     0.00164       2.31818
    46    C    1  f(S3)  Ryd( 5f)     0.00016       4.39884
 
    47    C    2  S      Cor( 1S)     1.99922     -10.42192
    48    C    2  S      Val( 2S)     0.96081      -0.23051
    49    C    2  S      Ryd( 3S)     0.00116       1.81687
    50    C    2  S      Ryd( 5S)     0.00010       2.76491
    51    C    2  S      Ryd( 4S)     0.00003       2.20567
    52    C    2  px     Val( 2p)     1.05070      -0.08213
    53    C    2  px     Ryd( 4p)     0.00290       1.81524
    54    C    2  px     Ryd( 5p)     0.00011       2.08763
    55    C    2  px     Ryd( 3p)     0.00005       1.26835
    56    C    2  py     Val( 2p)     1.15920      -0.09358
    57    C    2  py     Ryd( 4p)     0.00463       1.65919
    58    C    2  py     Ryd( 5p)     0.00009       2.22180
    59    C    2  py     Ryd( 3p)     0.00005       1.41243
    60    C    2  pz     Val( 2p)     0.95244      -0.13711
    61    C    2  pz     Ryd( 4p)     0.00062       0.98389
    62    C    2  pz     Ryd( 5p)     0.00004       1.54164
    63    C    2  pz     Ryd( 3p)     0.00005       0.81910
    64    C    2  dxy    Ryd( 4d)     0.00190       3.13508
    65    C    2  dxy    Ryd( 5d)     0.00017       4.15592
    66    C    2  dxy    Ryd( 3d)     0.00007       2.46022
    67    C    2  dxz    Ryd( 3d)     0.00053       1.38761
    68    C    2  dxz    Ryd( 5d)     0.00007       3.14485
    69    C    2  dxz    Ryd( 4d)     0.00006       1.81548
    70    C    2  dyz    Ryd( 3d)     0.00028       1.36703
    71    C    2  dyz    Ryd( 5d)     0.00006       3.20612
    72    C    2  dyz    Ryd( 4d)     0.00004       1.54498
    73    C    2  dx2y2  Ryd( 4d)     0.00178       2.89320
    74    C    2  dx2y2  Ryd( 5d)     0.00017       4.04498
    75    C    2  dx2y2  Ryd( 3d)     0.00007       2.72263
    76    C    2  dz2    Ryd( 3d)     0.00086       1.76501
    77    C    2  dz2    Ryd( 4d)     0.00010       3.68753
    78    C    2  dz2    Ryd( 5d)     0.00007       4.35832
    79    C    2  f(0)   Ryd( 4f)     0.00015       1.47000
    80    C    2  f(0)   Ryd( 5f)     0.00008       3.39525
    81    C    2  f(C1)  Ryd( 4f)     0.00037       1.95543
    82    C    2  f(C1)  Ryd( 5f)     0.00020       3.58122
    83    C    2  f(S1)  Ryd( 4f)     0.00049       1.68831
    84    C    2  f(S1)  Ryd( 5f)     0.00011       3.52311
    85    C    2  f(C2)  Ryd( 4f)     0.00025       1.55633
    86    C    2  f(C2)  Ryd( 5f)     0.00004       3.42408
    87    C    2  f(S2)  Ryd( 4f)     0.00019       1.46325
    88    C    2  f(S2)  Ryd( 5f)     0.00003       3.45162
    89    C    2  f(C3)  Ryd( 4f)     0.00041       2.54457
    90    C    2  f(C3)  Ryd( 5f)     0.00017       4.00237
    91    C    2  f(S3)  Ryd( 4f)     0.00092       1.99731
    92    C    2  f(S3)  Ryd( 5f)     0.00019       4.08811
 
    93    C    3  S      Cor( 1S)     1.99913     -10.41808
    94    C    3  S      Val( 2S)     0.96890      -0.23471
    95    C    3  S      Ryd( 3S)     0.00117       1.63934
    96    C    3  S      Ryd( 5S)     0.00009       2.91197
    97    C    3  S      Ryd( 4S)     0.00003       2.21396
    98    C    3  px     Val( 2p)     1.12072      -0.10689
    99    C    3  px     Ryd( 4p)     0.00291       1.70791
   100    C    3  px     Ryd( 3p)     0.00012       1.64226
   101    C    3  px     Ryd( 5p)     0.00005       2.25593
   102    C    3  py     Val( 2p)     1.12499      -0.10417
   103    C    3  py     Ryd( 4p)     0.00326       1.65385
   104    C    3  py     Ryd( 3p)     0.00006       1.55489
   105    C    3  py     Ryd( 5p)     0.00003       1.71184
   106    C    3  pz     Val( 2p)     1.04201      -0.15019
   107    C    3  pz     Ryd( 3p)     0.00076       0.96510
   108    C    3  pz     Ryd( 4p)     0.00006       1.15676
   109    C    3  pz     Ryd( 5p)     0.00005       1.27530
   110    C    3  dxy    Ryd( 3d)     0.00173       2.32734
   111    C    3  dxy    Ryd( 5d)     0.00016       3.48574
   112    C    3  dxy    Ryd( 4d)     0.00010       3.24649
   113    C    3  dxz    Ryd( 3d)     0.00036       1.48866
   114    C    3  dxz    Ryd( 5d)     0.00004       2.76577
   115    C    3  dxz    Ryd( 4d)     0.00002       2.06803
   116    C    3  dyz    Ryd( 3d)     0.00057       1.41148
   117    C    3  dyz    Ryd( 5d)     0.00005       2.90094
   118    C    3  dyz    Ryd( 4d)     0.00004       1.85199
   119    C    3  dx2y2  Ryd( 4d)     0.00144       3.40648
   120    C    3  dx2y2  Ryd( 5d)     0.00028       3.72843
   121    C    3  dx2y2  Ryd( 3d)     0.00007       2.55992
   122    C    3  dz2    Ryd( 3d)     0.00095       1.64676
   123    C    3  dz2    Ryd( 5d)     0.00010       3.67721
   124    C    3  dz2    Ryd( 4d)     0.00006       3.49445
   125    C    3  f(0)   Ryd( 5f)     0.00016       3.59706
   126    C    3  f(0)   Ryd( 4f)     0.00004       2.31056
   127    C    3  f(C1)  Ryd( 5f)     0.00019       3.83923
   128    C    3  f(C1)  Ryd( 4f)     0.00002       2.96174
   129    C    3  f(S1)  Ryd( 5f)     0.00024       3.71055
   130    C    3  f(S1)  Ryd( 4f)     0.00003       2.96284
   131    C    3  f(C2)  Ryd( 5f)     0.00001       3.66424
   132    C    3  f(C2)  Ryd( 4f)     0.00002       2.49973
   133    C    3  f(S2)  Ryd( 5f)     0.00003       3.69258
   134    C    3  f(S2)  Ryd( 4f)     0.00002       2.38209
   135    C    3  f(C3)  Ryd( 4f)     0.00014       4.26531
   136    C    3  f(C3)  Ryd( 5f)     0.00005       5.48547
   137    C    3  f(S3)  Ryd( 5f)     0.00010       4.38543
   138    C    3  f(S3)  Ryd( 4f)     0.00007       4.20622
 
   139    C    4  S      Cor( 1S)     1.99881     -10.50680
   140    C    4  S      Val( 2S)     0.86162      -0.19930
   141    C    4  S      Ryd( 3S)     0.00142       1.85385
   142    C    4  S      Ryd( 4S)     0.00009       2.11558
   143    C    4  S      Ryd( 5S)     0.00002       2.53854
   144    C    4  px     Val( 2p)     0.74961      -0.06527
   145    C    4  px     Ryd( 3p)     0.00479       1.54444
   146    C    4  px     Ryd( 4p)     0.00010       1.75743
   147    C    4  px     Ryd( 5p)     0.00007       1.79352
   148    C    4  py     Val( 2p)     1.07346      -0.10829
   149    C    4  py     Ryd( 5p)     0.00460       1.74470
   150    C    4  py     Ryd( 4p)     0.00008       1.51833
   151    C    4  py     Ryd( 3p)     0.00003       1.43283
   152    C    4  pz     Val( 2p)     0.98216      -0.16010
   153    C    4  pz     Ryd( 3p)     0.00093       0.86990
   154    C    4  pz     Ryd( 4p)     0.00019       1.13023
   155    C    4  pz     Ryd( 5p)     0.00004       1.14571
   156    C    4  dxy    Ryd( 4d)     0.00150       3.14303
   157    C    4  dxy    Ryd( 3d)     0.00040       3.06066
   158    C    4  dxy    Ryd( 5d)     0.00009       4.55640
   159    C    4  dxz    Ryd( 3d)     0.00130       1.82608
   160    C    4  dxz    Ryd( 4d)     0.00018       2.08243
   161    C    4  dxz    Ryd( 5d)     0.00007       2.68723
   162    C    4  dyz    Ryd( 3d)     0.00081       1.86349
   163    C    4  dyz    Ryd( 4d)     0.00004       2.04059
   164    C    4  dyz    Ryd( 5d)     0.00002       2.64316
   165    C    4  dx2y2  Ryd( 3d)     0.00066       2.84516
   166    C    4  dx2y2  Ryd( 4d)     0.00029       3.08234
   167    C    4  dx2y2  Ryd( 5d)     0.00008       3.56696
   168    C    4  dz2    Ryd( 3d)     0.00054       2.78696
   169    C    4  dz2    Ryd( 4d)     0.00040       2.86082
   170    C    4  dz2    Ryd( 5d)     0.00012       3.96268
   171    C    4  f(0)   Ryd( 4f)     0.00024       1.37248
   172    C    4  f(0)   Ryd( 5f)     0.00019       3.64026
   173    C    4  f(C1)  Ryd( 4f)     0.00052       1.56605
   174    C    4  f(C1)  Ryd( 5f)     0.00017       3.70924
   175    C    4  f(S1)  Ryd( 4f)     0.00043       1.57236
   176    C    4  f(S1)  Ryd( 5f)     0.00021       3.72226
   177    C    4  f(C2)  Ryd( 4f)     0.00059       1.25943
   178    C    4  f(C2)  Ryd( 5f)     0.00006       3.69841
   179    C    4  f(S2)  Ryd( 4f)     0.00047       1.24210
   180    C    4  f(S2)  Ryd( 5f)     0.00002       3.68860
   181    C    4  f(C3)  Ryd( 4f)     0.00110       1.73550
   182    C    4  f(C3)  Ryd( 5f)     0.00008       4.44825
   183    C    4  f(S3)  Ryd( 4f)     0.00233       1.91061
   184    C    4  f(S3)  Ryd( 5f)     0.00009       4.57349
 
   185    C    5  S      Cor( 1S)     1.99915     -10.41422
   186    C    5  S      Val( 2S)     0.96795      -0.23112
   187    C    5  S      Ryd( 3S)     0.00124       1.69754
   188    C    5  S      Ryd( 5S)     0.00009       3.19023
   189    C    5  S      Ryd( 4S)     0.00003       1.88207
   190    C    5  px     Val( 2p)     1.07647      -0.09389
   191    C    5  px     Ryd( 5p)     0.00395       1.73276
   192    C    5  px     Ryd( 4p)     0.00015       1.70980
   193    C    5  px     Ryd( 3p)     0.00003       1.37906
   194    C    5  py     Val( 2p)     1.15285      -0.10563
   195    C    5  py     Ryd( 4p)     0.00374       1.64777
   196    C    5  py     Ryd( 5p)     0.00004       1.90231
   197    C    5  py     Ryd( 3p)     0.00005       1.42247
   198    C    5  pz     Val( 2p)     1.02511      -0.14480
   199    C    5  pz     Ryd( 3p)     0.00078       0.98404
   200    C    5  pz     Ryd( 5p)     0.00002       1.35759
   201    C    5  pz     Ryd( 4p)     0.00005       0.99802
   202    C    5  dxy    Ryd( 4d)     0.00213       3.07343
   203    C    5  dxy    Ryd( 5d)     0.00021       3.80516
   204    C    5  dxy    Ryd( 3d)     0.00007       2.54701
   205    C    5  dxz    Ryd( 3d)     0.00036       1.48915
   206    C    5  dxz    Ryd( 5d)     0.00002       2.88966
   207    C    5  dxz    Ryd( 4d)     0.00001       1.96632
   208    C    5  dyz    Ryd( 3d)     0.00035       1.40385
   209    C    5  dyz    Ryd( 5d)     0.00005       2.98728
   210    C    5  dyz    Ryd( 4d)     0.00005       1.67226
   211    C    5  dx2y2  Ryd( 4d)     0.00138       2.75437
   212    C    5  dx2y2  Ryd( 5d)     0.00020       3.66885
   213    C    5  dx2y2  Ryd( 3d)     0.00009       2.64070
   214    C    5  dz2    Ryd( 3d)     0.00102       1.75289
   215    C    5  dz2    Ryd( 5d)     0.00013       3.63816
   216    C    5  dz2    Ryd( 4d)     0.00007       3.51938
   217    C    5  f(0)   Ryd( 5f)     0.00016       3.47508
   218    C    5  f(0)   Ryd( 4f)     0.00003       2.27971
   219    C    5  f(C1)  Ryd( 5f)     0.00025       3.81976
   220    C    5  f(C1)  Ryd( 4f)     0.00002       3.18169
   221    C    5  f(S1)  Ryd( 5f)     0.00019       3.63920
   222    C    5  f(S1)  Ryd( 4f)     0.00004       2.74402
   223    C    5  f(C2)  Ryd( 5f)     0.00002       3.59140
   224    C    5  f(C2)  Ryd( 4f)     0.00001       2.53082
   225    C    5  f(S2)  Ryd( 5f)     0.00002       3.59503
   226    C    5  f(S2)  Ryd( 4f)     0.00002       2.38293
   227    C    5  f(C3)  Ryd( 4f)     0.00016       4.16693
   228    C    5  f(C3)  Ryd( 5f)     0.00005       5.54002
   229    C    5  f(S3)  Ryd( 4f)     0.00011       4.25807
   230    C    5  f(S3)  Ryd( 5f)     0.00009       4.34129
 
   231    C    6  S      Cor( 1S)     1.99921     -10.41698
   232    C    6  S      Val( 2S)     0.96460      -0.22708
   233    C    6  S      Ryd( 3S)     0.00112       1.81038
   234    C    6  S      Ryd( 5S)     0.00009       2.79323
   235    C    6  S      Ryd( 4S)     0.00003       2.04677
   236    C    6  px     Val( 2p)     1.09548      -0.08161
   237    C    6  px     Ryd( 4p)     0.00380       1.85933
   238    C    6  px     Ryd( 5p)     0.00010       2.38340
   239    C    6  px     Ryd( 3p)     0.00007       1.14056
   240    C    6  py     Val( 2p)     1.11850      -0.08728
   241    C    6  py     Ryd( 4p)     0.00393       1.63983
   242    C    6  py     Ryd( 5p)     0.00008       2.16627
   243    C    6  py     Ryd( 3p)     0.00004       1.19037
   244    C    6  pz     Val( 2p)     0.94000      -0.13371
   245    C    6  pz     Ryd( 4p)     0.00056       0.98419
   246    C    6  pz     Ryd( 5p)     0.00005       1.65823
   247    C    6  pz     Ryd( 3p)     0.00004       0.67253
   248    C    6  dxy    Ryd( 3d)     0.00180       2.24891
   249    C    6  dxy    Ryd( 5d)     0.00014       3.87904
   250    C    6  dxy    Ryd( 4d)     0.00009       3.26904
   251    C    6  dxz    Ryd( 3d)     0.00050       1.44721
   252    C    6  dxz    Ryd( 5d)     0.00004       3.19583
   253    C    6  dxz    Ryd( 4d)     0.00004       1.72004
   254    C    6  dyz    Ryd( 3d)     0.00029       1.36196
   255    C    6  dyz    Ryd( 5d)     0.00005       3.17287
   256    C    6  dyz    Ryd( 4d)     0.00003       1.53366
   257    C    6  dx2y2  Ryd( 4d)     0.00182       3.68478
   258    C    6  dx2y2  Ryd( 5d)     0.00020       4.42043
   259    C    6  dx2y2  Ryd( 3d)     0.00006       1.92274
   260    C    6  dz2    Ryd( 3d)     0.00078       1.78154
   261    C    6  dz2    Ryd( 4d)     0.00008       3.70452
   262    C    6  dz2    Ryd( 5d)     0.00007       4.33930
   263    C    6  f(0)   Ryd( 4f)     0.00011       1.44499
   264    C    6  f(0)   Ryd( 5f)     0.00008       3.40150
   265    C    6  f(C1)  Ryd( 4f)     0.00040       1.95428
   266    C    6  f(C1)  Ryd( 5f)     0.00018       3.63196
   267    C    6  f(S1)  Ryd( 4f)     0.00042       1.71877
   268    C    6  f(S1)  Ryd( 5f)     0.00015       3.50353
   269    C    6  f(C2)  Ryd( 4f)     0.00022       1.47309
   270    C    6  f(C2)  Ryd( 5f)     0.00003       3.43934
   271    C    6  f(S2)  Ryd( 4f)     0.00019       1.50897
   272    C    6  f(S2)  Ryd( 5f)     0.00004       3.44987
   273    C    6  f(C3)  Ryd( 4f)     0.00045       2.35620
   274    C    6  f(C3)  Ryd( 5f)     0.00016       3.98701
   275    C    6  f(S3)  Ryd( 4f)     0.00086       2.13869
   276    C    6  f(S3)  Ryd( 5f)     0.00020       4.09524
 
   277    C    7  S      Cor( 1S)     1.99940     -10.56944
   278    C    7  S      Val( 2S)     0.79246      -0.15565
   279    C    7  S      Ryd( 4S)     0.00466       1.84627
   280    C    7  S      Ryd( 3S)     0.00016       1.66419
   281    C    7  S      Ryd( 5S)     0.00007       2.31651
   282    C    7  px     Val( 2p)     0.91229      -0.06078
   283    C    7  px     Ryd( 5p)     0.00704       1.55246
   284    C    7  px     Ryd( 3p)     0.00023       1.10651
   285    C    7  px     Ryd( 4p)     0.00001       1.39252
   286    C    7  py     Val( 2p)     0.71495      -0.03101
   287    C    7  py     Ryd( 4p)     0.01210       1.53628
   288    C    7  py     Ryd( 3p)     0.00008       1.20894
   289    C    7  py     Ryd( 5p)     0.00006       1.69972
   290    C    7  pz     Val( 2p)     0.73904      -0.12445
   291    C    7  pz     Ryd( 5p)     0.00129       1.13455
   292    C    7  pz     Ryd( 3p)     0.00009       0.78016
   293    C    7  pz     Ryd( 4p)     0.00003       1.07733
   294    C    7  dxy    Ryd( 4d)     0.00050       3.15534
   295    C    7  dxy    Ryd( 3d)     0.00027       2.34913
   296    C    7  dxy    Ryd( 5d)     0.00008       3.61796
   297    C    7  dxz    Ryd( 4d)     0.00098       2.60141
   298    C    7  dxz    Ryd( 3d)     0.00014       1.63007
   299    C    7  dxz    Ryd( 5d)     0.00007       2.62885
   300    C    7  dyz    Ryd( 5d)     0.00143       2.90381
   301    C    7  dyz    Ryd( 3d)     0.00011       1.75899
   302    C    7  dyz    Ryd( 4d)     0.00005       2.75370
   303    C    7  dx2y2  Ryd( 4d)     0.00210       3.19424
   304    C    7  dx2y2  Ryd( 3d)     0.00016       1.99493
   305    C    7  dx2y2  Ryd( 5d)     0.00007       3.44477
   306    C    7  dz2    Ryd( 5d)     0.00052       3.33652
   307    C    7  dz2    Ryd( 3d)     0.00049       1.98969
   308    C    7  dz2    Ryd( 4d)     0.00009       3.17036
   309    C    7  f(0)   Ryd( 5f)     0.00008       3.34724
   310    C    7  f(0)   Ryd( 4f)     0.00003       2.73621
   311    C    7  f(C1)  Ryd( 5f)     0.00010       3.53517
   312    C    7  f(C1)  Ryd( 4f)     0.00001       3.19966
   313    C    7  f(S1)  Ryd( 5f)     0.00008       3.47511
   314    C    7  f(S1)  Ryd( 4f)     0.00005       2.99494
   315    C    7  f(C2)  Ryd( 5f)     0.00003       3.39215
   316    C    7  f(C2)  Ryd( 4f)     0.00004       2.87366
   317    C    7  f(S2)  Ryd( 5f)     0.00003       3.62551
   318    C    7  f(S2)  Ryd( 4f)     0.00001       3.38240
   319    C    7  f(C3)  Ryd( 4f)     0.00006       4.35724
   320    C    7  f(C3)  Ryd( 5f)     0.00003       7.14287
   321    C    7  f(S3)  Ryd( 4f)     0.00008       4.23821
   322    C    7  f(S3)  Ryd( 5f)     0.00004       4.38192
 
   323    O    8  S      Cor( 1S)     1.99967     -19.50395
   324    O    8  S      Val( 2S)     1.59570      -1.01464
   325    O    8  S      Ryd( 4S)     0.00080       2.12407
   326    O    8  S      Ryd( 3S)     0.00024       1.52075
   327    O    8  S      Ryd( 5S)     0.00002      11.55812
   328    O    8  px     Val( 2p)     1.36912      -0.39847
   329    O    8  px     Ryd( 3p)     0.00093       2.30120
   330    O    8  px     Ryd( 4p)     0.00024       2.33897
   331    O    8  px     Ryd( 5p)     0.00007       4.04330
   332    O    8  py     Val( 2p)     1.68051      -0.44272
   333    O    8  py     Ryd( 3p)     0.00241       1.51654
   334    O    8  py     Ryd( 4p)     0.00015       2.14317
   335    O    8  py     Ryd( 5p)     0.00014       3.60593
   336    O    8  pz     Val( 2p)     1.84620      -0.45009
   337    O    8  pz     Ryd( 3p)     0.00261       1.01797
   338    O    8  pz     Ryd( 4p)     0.00007       1.88623
   339    O    8  pz     Ryd( 5p)     0.00003       3.01130
   340    O    8  dxy    Ryd( 3d)     0.00693       2.65946
   341    O    8  dxy    Ryd( 4d)     0.00012       3.37919
   342    O    8  dxy    Ryd( 5d)     0.00010       6.67632
   343    O    8  dxz    Ryd( 3d)     0.00041       1.35244
   344    O    8  dxz    Ryd( 4d)     0.00016       2.29612
   345    O    8  dxz    Ryd( 5d)     0.00008       6.42226
   346    O    8  dyz    Ryd( 3d)     0.00553       1.24989
   347    O    8  dyz    Ryd( 4d)     0.00015       2.20468
   348    O    8  dyz    Ryd( 5d)     0.00001       6.24626
   349    O    8  dx2y2  Ryd( 3d)     0.00472       1.81314
   350    O    8  dx2y2  Ryd( 4d)     0.00040       2.93496
   351    O    8  dx2y2  Ryd( 5d)     0.00003       6.62400
   352    O    8  dz2    Ryd( 3d)     0.00382       1.56101
   353    O    8  dz2    Ryd( 4d)     0.00017       2.59011
   354    O    8  dz2    Ryd( 5d)     0.00002       6.55013
   355    O    8  f(0)   Ryd( 4f)     0.00079       2.73110
   356    O    8  f(0)   Ryd( 5f)     0.00003       6.26767
   357    O    8  f(C1)  Ryd( 4f)     0.00023       4.44498
   358    O    8  f(C1)  Ryd( 5f)     0.00007       6.53043
   359    O    8  f(S1)  Ryd( 4f)     0.00028       3.42970
   360    O    8  f(S1)  Ryd( 5f)     0.00002       6.29897
   361    O    8  f(C2)  Ryd( 4f)     0.00019       2.80847
   362    O    8  f(C2)  Ryd( 5f)     0.00004       6.38686
   363    O    8  f(S2)  Ryd( 4f)     0.00018       2.86960
   364    O    8  f(S2)  Ryd( 5f)     0.00002       6.40752
   365    O    8  f(C3)  Ryd( 4f)     0.00029       4.37929
   366    O    8  f(C3)  Ryd( 5f)     0.00009       6.66442
   367    O    8  f(S3)  Ryd( 4f)     0.00016       4.38188
   368    O    8  f(S3)  Ryd( 5f)     0.00011       6.65833
 
   369    O    9  S      Cor( 1S)     1.99977     -19.32985
   370    O    9  S      Val( 2S)     1.69702      -1.01609
   371    O    9  S      Ryd( 4S)     0.00068       2.99217
   372    O    9  S      Ryd( 3S)     0.00018       1.64057
   373    O    9  S      Ryd( 5S)     0.00002       8.34443
   374    O    9  px     Val( 2p)     1.73370      -0.35457
   375    O    9  px     Ryd( 4p)     0.00139       1.42265
   376    O    9  px     Ryd( 3p)     0.00011       0.81336
   377    O    9  px     Ryd( 5p)     0.00005       4.81666
   378    O    9  py     Val( 2p)     1.67219      -0.35520
   379    O    9  py     Ryd( 4p)     0.00151       1.41095
   380    O    9  py     Ryd( 3p)     0.00008       0.76913
   381    O    9  py     Ryd( 5p)     0.00005       5.05454
   382    O    9  pz     Val( 2p)     1.46369      -0.30511
   383    O    9  pz     Ryd( 4p)     0.00059       1.05060
   384    O    9  pz     Ryd( 3p)     0.00002       0.58463
   385    O    9  pz     Ryd( 5p)     0.00001       4.23738
   386    O    9  dxy    Ryd( 3d)     0.00836       2.01010
   387    O    9  dxy    Ryd( 4d)     0.00009       3.45914
   388    O    9  dxy    Ryd( 5d)     0.00002       6.44509
   389    O    9  dxz    Ryd( 3d)     0.00354       1.51488
   390    O    9  dxz    Ryd( 4d)     0.00002       2.02652
   391    O    9  dxz    Ryd( 5d)     0.00001       6.28706
   392    O    9  dyz    Ryd( 3d)     0.00448       1.56267
   393    O    9  dyz    Ryd( 4d)     0.00005       2.13299
   394    O    9  dyz    Ryd( 5d)     0.00002       6.28128
   395    O    9  dx2y2  Ryd( 3d)     0.00576       1.74642
   396    O    9  dx2y2  Ryd( 4d)     0.00007       2.15135
   397    O    9  dx2y2  Ryd( 5d)     0.00005       6.32585
   398    O    9  dz2    Ryd( 3d)     0.00320       1.59974
   399    O    9  dz2    Ryd( 4d)     0.00008       2.45289
   400    O    9  dz2    Ryd( 5d)     0.00001       6.34860
   401    O    9  f(0)   Ryd( 4f)     0.00011       3.27787
   402    O    9  f(0)   Ryd( 5f)     0.00001       5.53514
   403    O    9  f(C1)  Ryd( 4f)     0.00013       3.29271
   404    O    9  f(C1)  Ryd( 5f)     0.00001       5.58347
   405    O    9  f(S1)  Ryd( 4f)     0.00013       3.32121
   406    O    9  f(S1)  Ryd( 5f)     0.00001       5.61183
   407    O    9  f(C2)  Ryd( 4f)     0.00009       3.14938
   408    O    9  f(C2)  Ryd( 5f)     0.00001       5.71755
   409    O    9  f(S2)  Ryd( 4f)     0.00034       3.45979
   410    O    9  f(S2)  Ryd( 5f)     0.00001       5.60776
   411    O    9  f(C3)  Ryd( 4f)     0.00034       3.83533
   412    O    9  f(C3)  Ryd( 5f)     0.00002       5.93009
   413    O    9  f(S3)  Ryd( 4f)     0.00048       3.64590
   414    O    9  f(S3)  Ryd( 5f)     0.00002       5.88622
 
   415    O   10  S      Cor( 1S)     1.99977     -19.46651
   416    O   10  S      Val( 2S)     1.67010      -1.04180
   417    O   10  S      Ryd( 3S)     0.00058       1.66515
   418    O   10  S      Ryd( 4S)     0.00006       2.41226
   419    O   10  S      Ryd( 5S)     0.00001       9.63538
   420    O   10  px     Val( 2p)     1.54494      -0.37944
   421    O   10  px     Ryd( 4p)     0.00076       1.16026
   422    O   10  px     Ryd( 3p)     0.00007       0.97552
   423    O   10  px     Ryd( 5p)     0.00006       5.00115
   424    O   10  py     Val( 2p)     1.63766      -0.40723
   425    O   10  py     Ryd( 4p)     0.00086       1.03187
   426    O   10  py     Ryd( 3p)     0.00007       0.66541
   427    O   10  py     Ryd( 5p)     0.00007       4.89617
   428    O   10  pz     Val( 2p)     1.82944      -0.42142
   429    O   10  pz     Ryd( 4p)     0.00109       0.86984
   430    O   10  pz     Ryd( 3p)     0.00001       0.68656
   431    O   10  pz     Ryd( 5p)     0.00001       4.04633
   432    O   10  dxy    Ryd( 3d)     0.00374       1.66261
   433    O   10  dxy    Ryd( 4d)     0.00013       2.41333
   434    O   10  dxy    Ryd( 5d)     0.00005       6.62829
   435    O   10  dxz    Ryd( 3d)     0.00132       1.19922
   436    O   10  dxz    Ryd( 4d)     0.00005       1.97988
   437    O   10  dxz    Ryd( 5d)     0.00001       6.42553
   438    O   10  dyz    Ryd( 3d)     0.00392       1.40286
   439    O   10  dyz    Ryd( 4d)     0.00005       1.84651
   440    O   10  dyz    Ryd( 5d)     0.00003       6.48668
   441    O   10  dx2y2  Ryd( 3d)     0.00615       1.95614
   442    O   10  dx2y2  Ryd( 4d)     0.00008       2.18077
   443    O   10  dx2y2  Ryd( 5d)     0.00005       6.93094
   444    O   10  dz2    Ryd( 3d)     0.00318       1.46960
   445    O   10  dz2    Ryd( 4d)     0.00013       2.23947
   446    O   10  dz2    Ryd( 5d)     0.00002       6.63714
   447    O   10  f(0)   Ryd( 4f)     0.00043       2.93592
   448    O   10  f(0)   Ryd( 5f)     0.00001       5.98194
   449    O   10  f(C1)  Ryd( 4f)     0.00017       3.22982
   450    O   10  f(C1)  Ryd( 5f)     0.00001       6.16704
   451    O   10  f(S1)  Ryd( 4f)     0.00025       3.07920
   452    O   10  f(S1)  Ryd( 5f)     0.00001       6.02172
   453    O   10  f(C2)  Ryd( 4f)     0.00005       3.12668
   454    O   10  f(C2)  Ryd( 5f)     0.00001       6.09230
   455    O   10  f(S2)  Ryd( 4f)     0.00018       2.97989
   456    O   10  f(S2)  Ryd( 5f)     0.00001       6.01847
   457    O   10  f(C3)  Ryd( 4f)     0.00016       4.31498
   458    O   10  f(C3)  Ryd( 5f)     0.00005       6.51243
   459    O   10  f(S3)  Ryd( 4f)     0.00004       3.56487
   460    O   10  f(S3)  Ryd( 5f)     0.00002       6.36736
 
   461    F   11  S      Cor( 1S)     1.99992     -25.03703
   462    F   11  S      Val( 2S)     1.85490      -1.46769
   463    F   11  S      Ryd( 3S)     0.00031       2.42516
   464    F   11  S      Ryd( 4S)     0.00011       2.47543
   465    F   11  S      Ryd( 5S)     0.00002      12.41192
   466    F   11  px     Val( 2p)     1.94669      -0.56529
   467    F   11  px     Ryd( 3p)     0.00054       1.02730
   468    F   11  px     Ryd( 4p)     0.00015       1.13719
   469    F   11  px     Ryd( 5p)     0.00003       4.62530
   470    F   11  py     Val( 2p)     1.85105      -0.55212
   471    F   11  py     Ryd( 3p)     0.00056       0.97853
   472    F   11  py     Ryd( 4p)     0.00013       1.16568
   473    F   11  py     Ryd( 5p)     0.00005       4.69221
   474    F   11  pz     Val( 2p)     1.67572      -0.52903
   475    F   11  pz     Ryd( 3p)     0.00066       0.90004
   476    F   11  pz     Ryd( 4p)     0.00011       1.31744
   477    F   11  pz     Ryd( 5p)     0.00016       4.90914
   478    F   11  dxy    Ryd( 3d)     0.00047       2.40748
   479    F   11  dxy    Ryd( 4d)     0.00009       2.40999
   480    F   11  dxy    Ryd( 5d)     0.00000       8.72773
   481    F   11  dxz    Ryd( 4d)     0.00146       2.63980
   482    F   11  dxz    Ryd( 3d)     0.00010       2.45917
   483    F   11  dxz    Ryd( 5d)     0.00001       8.72543
   484    F   11  dyz    Ryd( 4d)     0.00186       3.52326
   485    F   11  dyz    Ryd( 3d)     0.00018       2.88889
   486    F   11  dyz    Ryd( 5d)     0.00001       8.71935
   487    F   11  dx2y2  Ryd( 4d)     0.00053       2.38684
   488    F   11  dx2y2  Ryd( 3d)     0.00008       2.29691
   489    F   11  dx2y2  Ryd( 5d)     0.00001       8.68831
   490    F   11  dz2    Ryd( 4d)     0.00196       3.34207
   491    F   11  dz2    Ryd( 3d)     0.00016       2.89358
   492    F   11  dz2    Ryd( 5d)     0.00001       8.75256
   493    F   11  f(0)   Ryd( 4f)     0.00018       3.41164
   494    F   11  f(0)   Ryd( 5f)     0.00003       8.45339
   495    F   11  f(C1)  Ryd( 4f)     0.00010       3.33279
   496    F   11  f(C1)  Ryd( 5f)     0.00001       8.36020
   497    F   11  f(S1)  Ryd( 4f)     0.00009       3.54799
   498    F   11  f(S1)  Ryd( 5f)     0.00005       8.46798
   499    F   11  f(C2)  Ryd( 4f)     0.00009       3.33063
   500    F   11  f(C2)  Ryd( 5f)     0.00002       8.32424
   501    F   11  f(S2)  Ryd( 4f)     0.00014       3.29874
   502    F   11  f(S2)  Ryd( 5f)     0.00003       8.35391
   503    F   11  f(C3)  Ryd( 4f)     0.00003       3.16729
   504    F   11  f(C3)  Ryd( 5f)     0.00001       8.23135
   505    F   11  f(S3)  Ryd( 4f)     0.00003       3.18269
   506    F   11  f(S3)  Ryd( 5f)     0.00001       8.23167
 
   507    C   12  S      Cor( 1S)     1.99968     -10.78485
   508    C   12  S      Val( 2S)     0.71495      -0.22384
   509    C   12  S      Ryd( 4S)     0.00410       2.16564
   510    C   12  S      Ryd( 3S)     0.00043       1.16951
   511    C   12  S      Ryd( 5S)     0.00006       2.72337
   512    C   12  px     Val( 2p)     0.68149      -0.14343
   513    C   12  px     Ryd( 4p)     0.00848       1.57204
   514    C   12  px     Ryd( 3p)     0.00016       0.42432
   515    C   12  px     Ryd( 5p)     0.00011       2.34811
   516    C   12  py     Val( 2p)     0.65982      -0.13143
   517    C   12  py     Ryd( 4p)     0.01178       1.54051
   518    C   12  py     Ryd( 3p)     0.00024       0.56820
   519    C   12  py     Ryd( 5p)     0.00008       1.82634
   520    C   12  pz     Val( 2p)     0.64354      -0.14286
   521    C   12  pz     Ryd( 4p)     0.01041       1.48338
   522    C   12  pz     Ryd( 3p)     0.00020       0.34635
   523    C   12  pz     Ryd( 5p)     0.00001       1.81776
   524    C   12  dxy    Ryd( 5d)     0.00233       4.44164
   525    C   12  dxy    Ryd( 3d)     0.00028       2.22776
   526    C   12  dxy    Ryd( 4d)     0.00010       2.67595
   527    C   12  dxz    Ryd( 5d)     0.00337       3.24524
   528    C   12  dxz    Ryd( 3d)     0.00009       2.21261
   529    C   12  dxz    Ryd( 4d)     0.00008       2.39120
   530    C   12  dyz    Ryd( 5d)     0.00359       3.58761
   531    C   12  dyz    Ryd( 3d)     0.00031       2.23333
   532    C   12  dyz    Ryd( 4d)     0.00011       2.38840
   533    C   12  dx2y2  Ryd( 5d)     0.00245       3.47017
   534    C   12  dx2y2  Ryd( 3d)     0.00011       2.42546
   535    C   12  dx2y2  Ryd( 4d)     0.00011       2.63446
   536    C   12  dz2    Ryd( 5d)     0.00336       3.76726
   537    C   12  dz2    Ryd( 3d)     0.00023       2.38190
   538    C   12  dz2    Ryd( 4d)     0.00007       2.45863
   539    C   12  f(0)   Ryd( 5f)     0.00068       3.62534
   540    C   12  f(0)   Ryd( 4f)     0.00003       2.85404
   541    C   12  f(C1)  Ryd( 5f)     0.00015       4.10597
   542    C   12  f(C1)  Ryd( 4f)     0.00006       3.25559
   543    C   12  f(S1)  Ryd( 5f)     0.00017       4.18517
   544    C   12  f(S1)  Ryd( 4f)     0.00013       3.86992
   545    C   12  f(C2)  Ryd( 5f)     0.00014       3.99657
   546    C   12  f(C2)  Ryd( 4f)     0.00002       3.21536
   547    C   12  f(S2)  Ryd( 5f)     0.00071       3.63787
   548    C   12  f(S2)  Ryd( 4f)     0.00006       2.79829
   549    C   12  f(C3)  Ryd( 5f)     0.00056       3.88260
   550    C   12  f(C3)  Ryd( 4f)     0.00003       3.07542
   551    C   12  f(S3)  Ryd( 5f)     0.00015       4.18634
   552    C   12  f(S3)  Ryd( 4f)     0.00012       3.57547
 
   553    F   13  S      Cor( 1S)     1.99991     -25.02970
   554    F   13  S      Val( 2S)     1.84674      -1.46712
   555    F   13  S      Ryd( 3S)     0.00043       1.56327
   556    F   13  S      Ryd( 4S)     0.00021       3.53557
   557    F   13  S      Ryd( 5S)     0.00001      11.82561
   558    F   13  px     Val( 2p)     1.65105      -0.52591
   559    F   13  px     Ryd( 3p)     0.00066       0.99107
[...]
 .07552444,-0.02323882,-0.29973160,-0.10711730,0.05399471,0.68059579,-0
 .00454777,-0.04673793,-0.03824306,0.00023333,0.00854750,0.07036731,-0.
 00122935,-0.02011780,-0.15717500,-0.00088304,0.03975925,0.68603067,0.0
 0609685,-0.00608729,0.00068124,-0.00265124,-0.00035437,0.00243169,0.00
 807509,0.00040162,-0.00362713,-0.06969791,-0.00822312,-0.01040295,0.13
 695410,-0.00556298,-0.04580582,0.01088363,-0.00037395,-0.00465959,0.01
 677439,-0.00011507,0.00374859,-0.03444545,-0.00736712,-0.15083791,-0.1
 2047362,0.06675971,0.77168532,0.00642705,0.06617863,0.05411964,0.00221
 421,0.01468403,-0.07518449,-0.00928847,-0.08892797,0.01303534,-0.00102
 319,-0.03020817,-0.29198969,-0.00616611,-0.00821591,0.69008652,-0.0684
 9229,-0.02437133,-0.00125961,0.00645727,-0.00027431,-0.00983372,-0.002
 86598,-0.00742010,0.00237285,0.00160365,0.00717256,0.00778500,-0.06233
 678,-0.02056506,0.00998533,0.15079658,-0.02500652,-0.30834228,-0.01884
 684,0.00025559,0.00023095,-0.09445786,-0.00745589,-0.07177805,0.022415
 01,0.00653400,0.07018728,0.06986804,-0.01985182,-0.24401683,0.07818803
 ,0.05541431,0.67844841,-0.00821780,-0.08580879,-0.13958482,-0.00402653
 ,-0.03857258,0.00831061,0.00198147,0.01864582,-0.00668245,0.00078440,0
 .00249972,-0.05442425,0.01779841,0.15337909,-0.25626271,-0.00569801,0.
 00196444,0.76725541,-0.08395157,-0.00787342,0.00691618,-0.00067096,0.0
 0159586,0.00105323,0.00821190,-0.00021043,-0.00064469,-0.00042319,-0.0
 0078702,0.00022425,0.00723475,-0.00125518,-0.00051660,0.00073426,-0.00
 322369,0.00253436,0.22243760,-0.00797830,-0.15435097,0.06020776,0.0017
 0088,0.01624750,0.00772435,-0.00019999,0.00563829,-0.00728154,-0.00077
 815,-0.00769092,0.00149969,-0.00127363,-0.00535311,-0.00498718,-0.0032
 9899,-0.02834180,0.02533789,0.04184507,0.62746013,0.00577067,0.0491779
 6,-0.15272827,0.00220510,0.01880674,-0.02725059,-0.00053061,-0.0061834
 2,-0.00357836,0.00032151,0.00243651,-0.00755099,-0.00072003,-0.0069440
 2,0.00718737,0.00170878,0.01739483,0.01149306,-0.00001109,0.07210493,1
 .00801824,-0.00062810,-0.00040190,0.00065953,0.00709880,-0.00092679,-0
 .00094665,0.00631403,-0.00446738,0.00402783,-0.04001521,-0.01792765,0.
 00789884,0.00720972,-0.00053932,0.00154025,0.00448242,-0.00035076,-0.0
 0034435,-0.00094354,0.00068686,-0.00064286,0.09754799,-0.00035134,-0.0
 0341048,0.00604162,-0.00085470,-0.00194018,-0.00987526,-0.00474933,-0.
 03538843,0.03840854,-0.01774741,-0.20291477,0.06553187,-0.00015596,0.0
 0658434,0.00882630,-0.00044831,-0.00013860,-0.00374010,0.00065478,0.00
 479855,-0.00528073,0.02832033,0.36043873,0.00121508,0.01138911,-0.0039
 2040,-0.00015689,-0.00227664,-0.00122248,0.00093007,0.00860027,0.00296
 298,0.00986872,0.08449840,-0.15288296,0.00573766,0.04922238,-0.0584373
 0,-0.00141356,-0.01402896,-0.00012784,-0.00099446,-0.00866414,0.008912
 63,-0.01241843,-0.07276041,0.60568595,0.02157267,-0.00052957,0.0030032
 3,0.00284823,-0.00084188,0.00001051,-0.00180383,0.00012577,0.00024770,
 0.00007253,0.00020931,0.00002772,-0.00075334,0.00029878,-0.00000313,0.
 00013872,-0.00036152,0.00013847,-0.08104885,-0.00563953,-0.00807841,0.
 00017338,-0.00012690,0.00024095,0.03515448,-0.00069798,0.01690006,0.02
 146905,-0.00077104,-0.00447628,0.00008555,0.00013289,-0.00032387,0.002
 32160,0.00016592,0.00168954,0.00045764,0.00031045,0.00219149,-0.000127
 21,-0.00045864,-0.00413421,0.00111108,-0.00556190,-0.14655578,-0.13652
 526,-0.00011261,-0.00072589,0.00184957,0.01152884,0.16254623,0.0011598
 9,0.00372821,-0.05968918,0.00078600,0.00754805,0.00276224,0.00032531,0
 .00306994,-0.00249197,-0.00044727,-0.00411411,0.00214082,0.00012416,0.
 00109821,-0.00184704,-0.00092329,-0.00910831,-0.00225347,-0.00722895,-
 0.12835047,-0.72338765,0.00039759,0.00335716,-0.00495173,0.01230770,0.
 19144103,0.83226447,0.01129120,-0.00610343,-0.00000217,0.00041216,-0.0
 0048977,-0.00018835,-0.00071313,-0.00006362,0.00006816,0.00002382,0.00
 018160,-0.00032701,-0.00046529,-0.00012749,0.00021569,0.00146032,0.000
 04347,0.00063422,-0.06799205,-0.02092206,-0.00401820,0.00009201,-0.000
 24944,0.00051161,0.02915275,-0.00620274,-0.00673081,0.04425664,-0.0058
 3333,-0.04423380,-0.00009665,-0.00045399,-0.00411472,-0.00225708,-0.00
 007240,-0.00132502,0.00084861,0.00021478,0.00179148,-0.00304428,-0.000
 12601,-0.00146804,0.00212291,-0.00000165,0.00194910,0.00551907,-0.0206
 5323,-0.26878195,-0.04507276,-0.00028999,-0.00222629,0.00484040,-0.006
 31178,-0.03750861,-0.07093973,0.05334176,0.54054906,0.00295061,0.02832
 711,0.01111421,0.00020283,0.00150877,-0.00440643,-0.00002737,-0.000070
 88,0.00140482,0.00003675,0.00045661,0.00113182,0.00023311,0.00228998,0
 .00006441,0.00013913,0.00075386,-0.00495156,-0.00107556,-0.01674623,-0
 .13579529,0.00006776,0.00056807,-0.00079787,-0.00792406,-0.08242630,-0
 .03754041,-0.01775236,-0.12533974,0.53669941,-0.00012010,-0.00095411,0
 .00038881,0.00009097,0.00001264,0.00025067,-0.00006795,-0.00231471,0.0
 0070752,0.00034174,0.00564892,-0.00571542,0.00023393,-0.00096469,0.001
 62011,0.00015338,0.00064079,-0.00027481,0.00000498,0.00083754,-0.00073
 655,-0.00404570,0.01611664,0.03047745,0.00002968,-0.00020815,0.0004374
 1,0.00001877,-0.00049779,0.00008059,0.27763310,0.00034105,0.00112727,0
 .00008939,-0.00034960,0.00118690,0.00024894,-0.00218008,-0.00150353,-0
 .00074139,0.00035022,-0.00867594,0.00620521,-0.00006969,0.00146957,-0.
 00255100,-0.00039901,-0.00120190,0.00067896,0.00008668,-0.00055455,0.0
 0054650,0.02077768,-0.00214085,-0.03704813,-0.00004507,0.00009323,-0.0
 0011493,-0.00000185,0.00037837,0.00001237,-0.14950357,0.20458752,0.000
 02324,0.00126857,-0.00099799,0.00028065,-0.00035459,0.00031399,0.00150
 385,0.00333026,-0.00187814,-0.00016630,-0.00943536,0.00932771,-0.00029
 159,0.00120947,-0.00208600,-0.00035494,-0.00072012,0.00031586,-0.00019
 121,-0.00161705,0.00148651,0.04157643,-0.03519018,-0.04556090,0.000057
 68,0.00040258,-0.00092128,0.00008681,0.00094191,-0.00017957,-0.0710631
 1,0.05350004,0.10971992,0.00026460,-0.00018607,-0.00013408,-0.00067906
 ,-0.00017849,0.00002390,-0.00205323,0.00031967,0.00053855,-0.00800211,
 0.00263428,0.00268227,0.00086967,-0.00069620,0.00055809,0.00168838,0.0
 0012319,-0.00003944,0.00011986,-0.00005922,0.00007187,-0.07057497,-0.0
 0498991,-0.00187285,-0.00015953,0.00003669,-0.00010634,-0.00018848,0.0
 0002855,-0.00003685,-0.18396956,0.08241235,0.04358327,0.55436583,-0.00
 024745,-0.00217444,-0.00083049,-0.00018819,-0.00247571,-0.00004167,0.0
 0017707,0.00019065,0.00623271,0.00280233,0.02054709,0.01990602,-0.0007
 8366,-0.00601725,0.00632936,0.00016950,0.00323558,-0.00077513,0.000023
 29,0.00034214,-0.00009718,-0.00499572,-0.12115939,-0.03272028,0.000023
 33,0.00001023,-0.00054610,-0.00001536,-0.00036242,-0.00024923,0.081152
 74,-0.14118914,-0.03157696,0.00697334,0.61742125,-0.00080501,-0.007288
 18,0.00531224,-0.00008253,-0.00106592,-0.00363713,-0.00102038,-0.00877
 295,0.00939951,0.00451922,0.03758835,-0.07290101,-0.00039594,-0.002857
 55,0.01139523,0.00046614,0.00409076,-0.00266730,0.00097413,0.00858751,
 -0.00850253,-0.00193723,-0.03333407,-0.23047316,-0.00025219,-0.0019504
 7,0.00505532,-0.00051675,-0.00486870,0.00096077,0.04106869,-0.02721626
 ,-0.09775172,-0.00431076,-0.03625085,0.61070378,-0.00002748,-0.0000618
 7,0.00007835,-0.00013700,0.00006038,-0.00002736,0.00016108,-0.00012951
 ,-0.00002437,0.00355319,0.00045455,-0.00028410,-0.00007570,-0.00017475
 ,0.00012236,-0.00022766,0.00008937,0.00003895,0.00002564,0.00012830,-0
 .00014420,0.01045670,-0.00272209,0.00431353,0.00001149,-0.00003583,0.0
 0010273,0.00001364,-0.00007206,0.00002567,-0.00011995,0.04538072,-0.01
 001413,-0.08205839,-0.01876502,0.01025659,0.08756887,-0.00005777,-0.00
 051418,0.00068058,0.00006457,0.00046027,-0.00019215,-0.00011109,-0.000
 92944,-0.00037808,0.00036785,0.00680225,-0.00266138,-0.00015545,-0.001
 46465,0.00096106,0.00007372,0.00050619,0.00036555,0.00012440,0.0010951
 7,-0.00123811,-0.00244901,-0.00969545,0.03382904,-0.00004022,-0.000289
 40,0.00089177,-0.00006504,-0.00058420,0.00022380,0.03185029,-0.0695282
 6,0.01528916,-0.01877404,-0.25207683,0.09424022,0.03184916,0.37651639,
 0.00012299,0.00111037,-0.00082355,0.00001842,0.00024865,0.00063573,0.0
 0017667,0.00155721,-0.00139613,-0.00122747,-0.01174564,0.00430392,0.00
 033259,0.00298503,-0.00242094,-0.00013223,-0.00128141,-0.00033586,-0.0
 0018650,-0.00164550,0.00164850,0.00729320,0.06251152,-0.07319747,0.000
 05459,0.00042861,-0.00104336,0.00010231,0.00096157,-0.00023293,-0.0033
 4582,0.00362686,0.01453936,0.01015867,0.09329769,-0.12889185,-0.016869
 36,-0.15425871,0.17261231,0.00005794,0.00115482,-0.00034453,0.00021531
 ,0.00019866,-0.00019630,0.00080550,0.00176681,-0.00079785,-0.00133829,
 -0.00702104,0.00668197,0.00052290,0.00114424,-0.00206306,0.00003613,-0
 .00088764,0.00040499,-0.00021693,-0.00087882,0.00080286,-0.00979460,-0
 .01375608,-0.03674356,0.00009095,0.00020172,-0.00043305,0.00013377,0.0
 0053112,-0.00007147,-0.08787790,0.00270619,-0.00640433,-0.21324105,-0.
 06529855,-0.04783179,-0.01890074,-0.04277937,0.00347428,0.33159409,-0.
 00011859,0.00095389,0.00016137,0.00054955,0.00107286,0.00030424,0.0017
 1017,-0.00234158,-0.00054725,-0.00200663,-0.00709671,0.00489282,0.0003
 1629,0.00120730,-0.00216431,0.00012549,-0.00109628,0.00061315,-0.00016
 770,-0.00034738,0.00038393,-0.01835959,0.00509152,-0.03044215,0.000047
 65,0.00004035,-0.00002354,0.00005275,0.00026455,0.00002880,0.01895167,
 0.01532892,0.00191149,-0.06663491,-0.11016959,-0.01942506,-0.05610100,
 -0.05102713,0.00193446,0.12159877,0.14766816,0.00025816,0.00126443,-0.
 00100271,-0.00035048,-0.00028713,0.00030360,-0.00073989,0.00360338,-0.
 00191371,-0.00197347,-0.00936973,0.00942863,0.00058243,0.00113907,-0.0
 0211288,0.00019382,-0.00079184,0.00032753,-0.00017700,-0.00163506,0.00
 150129,-0.04721457,-0.02625492,-0.04704457,0.00004524,0.00040784,-0.00
 092968,0.00011447,0.00094894,-0.00018076,0.00467511,0.00060583,0.01564
 092,-0.05118694,-0.02315163,-0.09949539,0.01242385,0.01222933,0.014819
 28,0.08448188,0.03997043,0.11267357,0.00430808,-0.00066428,-0.00005271
 ,-0.04410419,-0.02943536,-0.00666722,0.00473814,-0.00217363,-0.0006241
 3,0.00758612,-0.00085359,0.00039210,-0.00110152,0.00016242,0.00006937,
 0.00613204,-0.00046806,-0.00003257,-0.00418362,0.00040950,-0.00008110,
 -0.00025636,-0.00008726,0.00001508,0.00063368,-0.00006121,-0.00001181,
 0.00019809,-0.00020084,0.00033380,-0.00010291,-0.00000756,0.00006748,0
 .00018178,-0.00004925,-0.00008095,-0.00002196,0.00000279,0.00001394,-0
 .00007634,0.00005385,-0.00004757,0.03074819,-0.00092981,-0.00465905,-0
 .00098109,-0.02941802,-0.33033719,-0.06724077,-0.00189942,-0.01383613,
 -0.00566190,-0.00085164,-0.00026187,0.00280832,0.00016180,0.00050068,0
 .00066549,-0.00046618,0.00156293,-0.00142946,0.00037882,-0.00061554,-0
 .00037297,-0.00007329,-0.00093885,0.00015157,-0.00005089,0.00014095,-0
 .00010011,-0.00020765,-0.00149529,0.00308209,-0.00006161,0.00012926,0.
 00008820,-0.00003955,-0.00026016,-0.00071756,0.00000157,0.00000410,0.0
 0012180,0.00010330,0.00010546,0.00010174,0.03277250,0.34908975,-0.0029
 6126,-0.02896794,-0.00079518,-0.00647849,-0.06542648,-0.07488497,0.002
 38147,0.02326223,0.00873152,0.00041296,0.00300917,-0.00289363,0.000063
 16,0.00060563,-0.00114584,-0.00001306,-0.00124262,-0.00605271,-0.00041
 789,-0.00361500,0.00023806,0.00016762,0.00161953,-0.00017581,0.0001013
 5,0.00099004,0.00079729,0.00025950,0.00236701,-0.00121274,0.00007248,-
 0.00015697,-0.00009971,0.00002515,0.00030365,0.00085865,0.00000054,-0.
 00000718,-0.00015767,-0.00010297,-0.00013813,-0.00010247,0.00672964,0.
 06916473,0.07567671,0.00717604,-0.00104048,0.00043072,0.00337171,0.000
 86313,0.00246348,-0.03626951,-0.00434940,-0.00607915,0.00394781,-0.000
 66341,-0.00309666,0.00553381,-0.00115865,-0.00000580,-0.00088767,-0.00
 006182,0.00006281,0.00058616,0.00005956,0.00007569,-0.00372479,0.00065
 737,0.00014412,-0.00032338,-0.00000462,0.00005772,-0.00001600,-0.00001
 766,-0.00000998,-0.00190895,0.00028178,0.00103578,0.00366267,-0.000981
 47,-0.00007958,-0.00026598,0.00010568,0.00000922,-0.00169691,0.0001140
 2,-0.00081742,-0.00421764,0.00052615,-0.00009998,0.02556436,-0.0010380
 0,-0.00238973,0.00341040,0.00058457,0.01093006,0.02191257,-0.00437719,
 -0.08573775,-0.08485449,-0.00037568,-0.00239723,-0.03035618,-0.0011613
 2,-0.00556328,-0.00045125,-0.00006487,-0.00143775,0.00073423,0.0000436
 6,0.00106090,0.00065669,0.00064137,0.00253663,0.00170840,-0.00000726,-
 0.00034296,0.00053964,-0.00001479,-0.00016504,-0.00009222,-0.00067635,
 0.00036462,0.00091281,-0.00096755,-0.00563519,-0.00098397,0.00010394,0
 .00073297,0.00010662,0.00109401,0.00019619,0.00112219,0.00053084,0.000
 79100,-0.00048528,0.00562826,0.08718334,0.00045778,0.00367011,-0.00076
 182,-0.00058975,-0.00747069,-0.01637127,-0.00638214,-0.08776996,-0.324
 73565,0.00005682,-0.00000855,-0.00210325,-0.00003517,-0.00073451,0.001
 32025,0.00002922,0.00041149,0.00054104,-0.00009826,-0.00101730,-0.0002
 0589,-0.00003102,0.00002335,-0.00027582,0.00002879,0.00026118,-0.00049
 539,0.00002146,0.00021031,0.00002721,0.00157085,0.00202561,-0.00216340
 ,0.00007462,0.00049839,0.00138558,-0.00001015,-0.00007935,-0.00007960,
 -0.00111424,0.00230309,-0.00220650,-0.00004986,-0.00000191,0.00095242,
 0.00606255,0.08755950,0.34529702,0.00751014,-0.00083934,0.00046710,-0.
 00078646,0.00014380,0.00003676,0.00480104,-0.00038862,-0.00007000,0.00
 527461,-0.00093977,0.00016236,-0.04041102,-0.03006512,-0.00605102,0.00
 319258,-0.00203270,-0.00065774,0.00049458,-0.00008435,-0.00011116,-0.0
 0324301,0.00040257,0.00003984,0.00002316,-0.00000243,0.00003431,-0.000
 18360,-0.00002682,0.00003256,-0.00019925,0.00015737,0.00023155,-0.0002
 7073,0.00005019,-0.00002651,0.00005245,-0.00000898,-0.00000217,-0.0002
 0888,-0.00010234,-0.00020960,-0.00070945,0.00006545,-0.00001157,0.0002
 4028,-0.00003292,0.00001800,0.02897203,-0.00084242,-0.00018224,0.00352
 458,0.00014786,0.00064795,0.00029325,-0.00038366,0.00100028,-0.0016313
 1,-0.00123223,-0.00640378,0.00089952,-0.03003907,-0.33203379,-0.061369
 85,-0.00175834,-0.01404674,-0.00571088,-0.00006739,-0.00023882,-0.0010
 1358,0.00039245,0.00057515,0.00091127,-0.00000631,-0.00000907,0.000304
 47,-0.00002504,-0.00039473,0.00029432,-0.00005992,0.00008397,0.0001293
 4,0.00004711,0.00014918,-0.00030638,-0.00000794,-0.00002446,-0.0000156
 3,0.00011834,0.00009254,0.00017687,0.00006586,-0.00008596,-0.00003803,
 -0.00004800,-0.00020468,0.00014615,0.03314721,0.35037771,0.00043488,0.
 00321380,-0.00303587,0.00008065,0.00071543,-0.00146518,-0.00001536,-0.
 00110486,-0.00564866,-0.00304183,-0.02993766,-0.00189845,-0.00576401,-
 0.05860804,-0.07170632,0.00234635,0.02319993,0.01018300,0.00007480,0.0
 0077581,0.00111675,-0.00007140,-0.00015943,0.00249693,-0.00000809,-0.0
 0010356,-0.00025779,0.00005190,0.00048057,-0.00038924,-0.00024800,0.00
 036125,0.00031219,-0.00006032,-0.00063171,-0.00083469,0.00000917,0.000
 09364,0.00011218,0.00030696,0.00030114,0.00031330,-0.00000689,0.000007
 06,0.00008731,-0.00014708,-0.00144247,-0.00005261,0.00617177,0.0634282
 4,0.06976316,0.00513556,-0.00075732,-0.00296862,0.00564476,-0.00121193
 ,-0.00002196,-0.00099751,-0.00000899,0.00005635,0.00811044,-0.00110904
 ,0.00036762,0.00512769,0.00060640,0.00243707,-0.04268142,-0.00326348,-
 0.00524140,-0.00389254,0.00029291,-0.00043216,-0.00009389,0.00003705,0
 .00018047,-0.00024993,0.00009851,0.00023061,0.00011529,0.00013248,0.00
 009504,-0.00006044,0.00004828,0.00004842,-0.00008031,-0.00002932,-0.00
 002964,0.00000462,-0.00001229,0.00002455,-0.00005368,-0.00001944,-0.00
 003462,0.00037875,-0.00006040,-0.00016225,-0.00078488,0.00009055,-0.00
 000907,-0.00445763,0.00054667,-0.00012301,0.02865229,-0.00050032,-0.00
 230745,-0.02933588,-0.00121479,-0.00597463,-0.00060441,-0.00000822,-0.
 00101465,0.00066742,-0.00111012,-0.00220232,0.00275425,0.00033314,0.01
 027224,0.02168319,-0.00327727,-0.08089263,-0.07627533,0.00033480,-0.00
 106108,-0.00389358,0.00001979,0.00024401,0.00163411,0.00009749,0.00088
 111,0.00220123,0.00011887,0.00132894,0.00089844,-0.00004397,0.00007641
 ,0.00006176,-0.00002440,-0.00033561,-0.00025117,-0.00001383,-0.0001066
 0,0.00022273,0.00007023,0.00007151,0.00007149,-0.00004431,-0.00018894,
 -0.00160071,0.00009064,0.00007590,-0.00002195,0.00055331,0.00074581,-0
 .00069147,0.00465926,0.08058687,-0.00015351,-0.00224685,-0.00322213,-0
 .00005255,-0.00089734,0.00146732,0.00006486,0.00074875,0.00037677,0.00
 035578,0.00264121,-0.00036041,-0.00055746,-0.00713539,-0.01429602,-0.0
 0539203,-0.07772397,-0.32544081,0.00002520,0.00050890,-0.00100927,-0.0
 0000814,-0.00018087,-0.00122047,0.00021912,0.00209067,-0.00045501,-0.0
 0005279,-0.00052437,-0.00007495,0.00004857,-0.00007429,-0.00005564,0.0
 0002384,0.00026378,0.00029660,0.00000771,0.00006056,-0.00014224,-0.000
 06290,-0.00006335,-0.00005750,0.00001403,0.00009561,-0.00004689,-0.000
 00814,-0.00001291,-0.00007732,-0.00004951,0.00001474,0.00087702,0.0055
 7874,0.08245703,0.34340873,0.00428821,-0.00086643,-0.00044880,-0.00019
 162,0.00006875,-0.00010447,0.00009190,0.00004108,0.00001096,0.00008157
 ,-0.00004176,0.00003083,-0.00036573,-0.00000598,-0.00007217,0.00061608
 ,-0.00013684,0.00015458,0.00347352,-0.00484758,0.00454992,-0.00005490,
 0.00004999,-0.00007482,-0.00556286,0.00164212,-0.00008190,-0.01760992,
 -0.01969112,0.02269978,-0.00003386,0.00001410,-0.00000957,0.00012465,-
 0.00001780,0.00008449,-0.00001282,0.00001479,-0.00001788,-0.00005126,-
 0.00001001,-0.00002340,-0.00013088,0.00004888,0.00003360,0.00001289,-0
 .00000129,-0.00000044,-0.00009085,0.00000481,0.00000951,0.00018285,-0.
 00004031,-0.00000080,0.01523303,-0.00085084,-0.00424742,-0.00471833,0.
 00007652,0.00044603,-0.00099706,0.00004100,0.00049170,0.00010253,-0.00
 004392,-0.00031278,0.00026106,-0.00000162,-0.00043927,-0.00063615,-0.0
 0015154,-0.00069339,0.00146328,-0.00528742,-0.04275079,0.04511352,0.00
 005552,0.00041023,-0.00069379,0.00162974,0.00987287,-0.00088239,-0.019
 25016,-0.18360138,0.18648039,0.00007366,-0.00003186,-0.00015132,-0.000
 02486,-0.00004039,0.00078226,0.00001590,0.00012326,-0.00016622,-0.0000
 6669,-0.00001459,-0.00015124,0.00004759,0.00035483,0.00035634,-0.00000
 110,0.00000202,-0.00000497,0.00000348,-0.00004833,0.00010233,-0.000039
 89,-0.00019889,-0.00002192,0.02377462,0.22067814,-0.00027906,-0.003084
 06,0.00002125,-0.00001936,-0.00017761,-0.00010492,0.00001025,0.0000956
 4,0.00005382,0.00000693,0.00003073,-0.00030816,-0.00002406,-0.00017240
 ,0.00028046,-0.00000618,-0.00008445,0.00035726,-0.00025993,-0.00118738
 ,0.01840642,-0.00001439,-0.00011199,0.00023027,-0.00021717,-0.00218362
 ,-0.00675619,0.02752232,0.23290202,-0.36564090,-0.00001455,0.00000200,
 0.00003791,0.00000735,0.00003964,-0.00021289,-0.00000578,-0.00004974,0
 .00005032,0.00001310,-0.00000112,0.00003805,0.00001937,0.00021917,0.00
 022567,0.00000171,0.00001573,0.00000502,-0.00000497,-0.00003709,0.0000
 2697,0.00000385,0.00002284,0.00003221,-0.02673942,-0.22623831,0.353257
 44\\0.00000029,-0.00000269,-0.00000193,0.,-0.00000079,0.00000065,0.000
 00006,0.00000311,-0.00000040,0.00000102,0.00000127,-0.00000220,-0.0000
 0026,-0.00000146,0.00000330,-0.00000011,-0.00000024,0.00000028,-0.0000
 0178,-0.00000598,-0.00000447,-0.00000064,0.00000086,0.00000677,-0.0000
 0004,-0.00000340,0.00000003,0.00000038,0.00000005,-0.00000293,-0.00000
 106,0.00000476,0.00000069,0.00000095,0.00000331,-0.00000011,0.00000046
 ,0.00000240,0.00000300,0.00000148,0.00000383,0.00000109,-0.00000018,0.
 00000029,-0.00000278,0.00000014,0.00000180,-0.00000057,-0.00000023,-0.
 00000099,0.00000289,-0.00000029,-0.00000305,0.00000077,-0.00000018,-0.
 00000308,-0.00000408\\\@
 The archive entry for this job was punched.


 WISDOM IS KNOWING WHAT TO DO,
 SKILL IS KNOWING HOW TO DO IT,
 AND VIRTUE IS NOT DOING IT.
 Job cpu time:       1 days  3 hours 27 minutes 52.1 seconds.
 Elapsed time:       0 days  1 hours 22 minutes 24.8 seconds.
 File lengths (MBytes):  RWF=    759 Int=      0 D2E=      0 Chk=     46 Scr=      1
 Normal termination of Gaussian 16 at Thu May 11 19:38:06 2023.
