 Entering Gaussian System, Link 0=g16
 Initial command:
 /usr/local/gaussian16c01/g16/l1.exe "/scr/akj/Gau-63876.inp" -scrdir="/scr/akj/"
 Entering Link 1 = /usr/local/gaussian16c01/g16/l1.exe PID=     63877.
  
 Copyright (c) 1988-2019, Gaussian, Inc.  All Rights Reserved.
  
 This is part of the Gaussian(R) 16 program.  It is based on
 the Gaussian(R) 09 system (copyright 2009, Gaussian, Inc.),
 the Gaussian(R) 03 system (copyright 2003, Gaussian, Inc.),
 the Gaussian(R) 98 system (copyright 1998, Gaussian, Inc.),
 the Gaussian(R) 94 system (copyright 1995, Gaussian, Inc.),
 the Gaussian 92(TM) system (copyright 1992, Gaussian, Inc.),
 the Gaussian 90(TM) system (copyright 1990, Gaussian, Inc.),
 the Gaussian 88(TM) system (copyright 1988, Gaussian, Inc.),
 the Gaussian 86(TM) system (copyright 1986, Carnegie Mellon
 University), and the Gaussian 82(TM) system (copyright 1983,
 Carnegie Mellon University). Gaussian is a federally registered
 trademark of Gaussian, Inc.
  
 This software contains proprietary and confidential information,
 including trade secrets, belonging to Gaussian, Inc.
  
 This software is provided under written license and may be
 used, copied, transmitted, or stored only in accord with that
 written license.
  
 The following legend is applicable only to US Government
 contracts under FAR:
  
                    RESTRICTED RIGHTS LEGEND
  
 Use, reproduction and disclosure by the US Government is
 subject to restrictions as set forth in subparagraphs (a)
 and (c) of the Commercial Computer Software - Restricted
 Rights clause in FAR 52.227-19.
  
 Gaussian, Inc.
 340 Quinnipiac St., Bldg. 40, Wallingford CT 06492
  
  
 ---------------------------------------------------------------
 Warning -- This program may not be used in any manner that
 competes with the business of Gaussian, Inc. or will provide
 assistance to any competitor of Gaussian, Inc.  The licensee
 of this program is prohibited from giving any competitor of
 Gaussian, Inc. access to this program.  By using this program,
 the user acknowledges that Gaussian, Inc. is engaged in the
 business of creating and licensing software in the field of
 computational chemistry and represents and warrants to the
 licensee that it is not a competitor of Gaussian, Inc. and that
 it will not use this program in any manner prohibited above.
 ---------------------------------------------------------------
  

 Cite this work as:
 Gaussian 16, Revision C.01,
 M. J. Frisch, G. W. Trucks, H. B. Schlegel, G. E. Scuseria, 
 M. A. Robb, J. R. Cheeseman, G. Scalmani, V. Barone, 
 G. A. Petersson, H. Nakatsuji, X. Li, M. Caricato, A. V. Marenich, 
 J. Bloino, B. G. Janesko, R. Gomperts, B. Mennucci, H. P. Hratchian, 
 J. V. Ortiz, A. F. Izmaylov, J. L. Sonnenberg, D. Williams-Young, 
 F. Ding, F. Lipparini, F. Egidi, J. Goings, B. Peng, A. Petrone, 
 T. Henderson, D. Ranasinghe, V. G. Zakrzewski, J. Gao, N. Rega, 
 G. Zheng, W. Liang, M. Hada, M. Ehara, K. Toyota, R. Fukuda, 
 J. Hasegawa, M. Ishida, T. Nakajima, Y. Honda, O. Kitao, H. Nakai, 
 T. Vreven, K. Throssell, J. A. Montgomery, Jr., J. E. Peralta, 
 F. Ogliaro, M. J. Bearpark, J. J. Heyd, E. N. Brothers, K. N. Kudin, 
 V. N. Staroverov, T. A. Keith, R. Kobayashi, J. Normand, 
 K. Raghavachari, A. P. Rendell, J. C. Burant, S. S. Iyengar, 
 J. Tomasi, M. Cossi, J. M. Millam, M. Klene, C. Adamo, R. Cammi, 
 J. W. Ochterski, R. L. Martin, K. Morokuma, O. Farkas, 
 J. B. Foresman, and D. J. Fox, Gaussian, Inc., Wallingford CT, 2019.
 
 ******************************************
 Gaussian 16:  ES64L-G16RevC.01  3-Jul-2019
                11-May-2023 
 ******************************************
 %nprocshared=20
 Will use up to   20 processors via shared memory.
 %mem=10000MW
 %chk=CYH-220-A_eq00001_2.chk
 ------------------------------------------
 # opt=tight freq aug-cc-pvtz pop=nbo m062x
 ------------------------------------------
 1/7=10,18=20,19=15,26=3,38=1/1,3;
 2/9=110,12=2,17=6,18=5,40=1/2;
 3/5=16,6=1,7=10,11=2,25=1,30=1,71=1,74=-55/1,2,3;
 4//1;
 5/5=2,38=5/2;
 6/7=2,8=2,9=2,10=2,28=1,40=1/1,7;
 7//1,2,3,16;
 1/7=10,18=20,19=15,26=3/3(2);
 2/9=110/2;
 99//99;
 2/9=110/2;
 3/5=16,6=1,7=10,11=2,25=1,30=1,71=1,74=-55/1,2,3;
 4/5=5,16=3,69=1/1;
 5/5=2,38=5/2;
 7//1,2,3,16;
 1/7=10,18=20,19=15,26=3/3(-5);
 2/9=110/2;
 6/7=2,8=2,9=2,10=2,19=2,28=1,40=1/1,7;
 99/9=1/99;
 -------------------
 CYH-220-A_eq00001_2
 -------------------
 Symbolic Z-matrix:
 Charge =  0 Multiplicity = 1
 C                     4.87031  -0.4275    0.80003 
 C                     5.68026   0.68991   0.63388 
 C                     6.326     1.23623   1.72939 
 C                     6.16812   0.6816    2.99131 
 C                     5.33673  -0.41945   3.15644 
 C                     4.68188  -0.9722    2.06274 
 N                     5.15265  -0.99178   4.44068 
 C                     5.05342  -2.37562   4.68323 
 C                     4.8826   -2.52067   6.15394 
 C                     4.88025  -1.26035   6.72175 
 C                     5.05423  -0.25365   5.63937 
 C                     4.74022  -3.66118   6.91579 
 C                     4.59216  -3.48994   8.28944 
 C                     4.58838  -2.21964   8.86166 
 C                     4.73332  -1.07643   8.08033 
 O                     5.10076   0.93948   5.73304 
 O                     5.10143  -3.23952   3.85189 
 C                     4.2069   -0.99849  -0.41568 
 O                     3.99747  -0.36081  -1.40441 
 O                     3.85241  -2.2973   -0.35347 
 H                     5.79202   1.10843  -0.35622 
 H                     6.96572   2.09846   1.60554 
 H                     6.67343   1.10611   3.84495 
 H                     4.01545  -1.80703   2.22219 
 H                     4.74378  -4.64049   6.45808 
 H                     4.47707  -4.3561    8.92611 
 H                     4.47053  -2.12343   9.93204 
 H                     4.7322   -0.08478   8.51068 
 H                     3.43426  -2.58404  -1.17213 
 

 GradGradGradGradGradGradGradGradGradGradGradGradGradGradGradGradGradGrad
 Berny optimization.
 Initialization pass.
                           ----------------------------
                           !    Initial Parameters    !
                           ! (Angstroms and Degrees)  !
 --------------------------                            --------------------------
 ! Name  Definition              Value          Derivative Info.                !
 --------------------------------------------------------------------------------
 ! R1    R(1,2)                  1.39           estimate D2E/DX2                !
 ! R2    R(1,6)                  1.388          estimate D2E/DX2                !
 ! R3    R(1,18)                 1.498          estimate D2E/DX2                !
 ! R4    R(2,3)                  1.384          estimate D2E/DX2                !
 ! R5    R(2,21)                 1.0807         estimate D2E/DX2                !
 ! R6    R(3,4)                  1.3874         estimate D2E/DX2                !
 ! R7    R(3,22)                 1.0808         estimate D2E/DX2                !
 ! R8    R(4,5)                  1.3895         estimate D2E/DX2                !
 ! R9    R(4,23)                 1.079          estimate D2E/DX2                !
 ! R10   R(5,6)                  1.3894         estimate D2E/DX2                !
 ! R11   R(5,7)                  1.418          estimate D2E/DX2                !
 ! R12   R(6,24)                 1.0801         estimate D2E/DX2                !
 ! R13   R(7,8)                  1.4084         estimate D2E/DX2                !
 ! R14   R(7,11)                 1.4112         estimate D2E/DX2                !
 ! R15   R(8,9)                  1.4877         estimate D2E/DX2                !
 ! R16   R(8,17)                 1.1999         estimate D2E/DX2                !
 ! R17   R(9,10)                 1.3823         estimate D2E/DX2                !
 ! R18   R(9,12)                 1.3789         estimate D2E/DX2                !
 ! R19   R(10,11)                1.4884         estimate D2E/DX2                !
 ! R20   R(10,15)                1.3788         estimate D2E/DX2                !
 ! R21   R(11,16)                1.1977         estimate D2E/DX2                !
 ! R22   R(12,13)                1.3922         estimate D2E/DX2                !
 ! R23   R(12,25)                1.081          estimate D2E/DX2                !
 ! R24   R(13,14)                1.3932         estimate D2E/DX2                !
 ! R25   R(13,26)                1.0811         estimate D2E/DX2                !
 ! R26   R(14,15)                1.3923         estimate D2E/DX2                !
 ! R27   R(14,27)                1.0811         estimate D2E/DX2                !
 ! R28   R(15,28)                1.081          estimate D2E/DX2                !
 ! R29   R(18,19)                1.195          estimate D2E/DX2                !
 ! R30   R(18,20)                1.3478         estimate D2E/DX2                !
 ! R31   R(20,29)                0.9629         estimate D2E/DX2                !
 ! A1    A(2,1,6)              120.2182         estimate D2E/DX2                !
 ! A2    A(2,1,18)             117.8684         estimate D2E/DX2                !
 ! A3    A(6,1,18)             121.9088         estimate D2E/DX2                !
 ! A4    A(1,2,3)              119.6397         estimate D2E/DX2                !
 ! A5    A(1,2,21)             118.7552         estimate D2E/DX2                !
 ! A6    A(3,2,21)             121.6046         estimate D2E/DX2                !
 ! A7    A(2,3,4)              120.6001         estimate D2E/DX2                !
 ! A8    A(2,3,22)             120.0247         estimate D2E/DX2                !
 ! A9    A(4,3,22)             119.3738         estimate D2E/DX2                !
 ! A10   A(3,4,5)              119.5334         estimate D2E/DX2                !
 ! A11   A(3,4,23)             120.5977         estimate D2E/DX2                !
 ! A12   A(5,4,23)             119.8632         estimate D2E/DX2                !
 ! A13   A(4,5,6)              120.2437         estimate D2E/DX2                !
 ! A14   A(4,5,7)              120.3397         estimate D2E/DX2                !
 ! A15   A(6,5,7)              119.4163         estimate D2E/DX2                !
 ! A16   A(1,6,5)              119.7348         estimate D2E/DX2                !
 ! A17   A(1,6,24)             121.4261         estimate D2E/DX2                !
 ! A18   A(5,6,24)             118.8228         estimate D2E/DX2                !
 ! A19   A(5,7,8)              124.1721         estimate D2E/DX2                !
 ! A20   A(5,7,11)             124.5582         estimate D2E/DX2                !
 ! A21   A(8,7,11)             111.2684         estimate D2E/DX2                !
 ! A22   A(7,8,9)              105.91           estimate D2E/DX2                !
 ! A23   A(7,8,17)             125.8224         estimate D2E/DX2                !
 ! A24   A(9,8,17)             128.2675         estimate D2E/DX2                !
 ! A25   A(8,9,10)             108.5046         estimate D2E/DX2                !
 ! A26   A(8,9,12)             129.6937         estimate D2E/DX2                !
 ! A27   A(10,9,12)            121.8016         estimate D2E/DX2                !
 ! A28   A(9,10,11)            108.5276         estimate D2E/DX2                !
 ! A29   A(9,10,15)            121.7714         estimate D2E/DX2                !
 ! A30   A(11,10,15)           129.701          estimate D2E/DX2                !
 ! A31   A(7,11,10)            105.7889         estimate D2E/DX2                !
 ! A32   A(7,11,16)            125.7881         estimate D2E/DX2                !
 ! A33   A(10,11,16)           128.4226         estimate D2E/DX2                !
 ! A34   A(9,12,13)            117.0253         estimate D2E/DX2                !
 ! A35   A(9,12,25)            120.9986         estimate D2E/DX2                !
 ! A36   A(13,12,25)           121.9761         estimate D2E/DX2                !
 ! A37   A(12,13,14)           121.1772         estimate D2E/DX2                !
 ! A38   A(12,13,26)           119.5931         estimate D2E/DX2                !
 ! A39   A(14,13,26)           119.2297         estimate D2E/DX2                !
 ! A40   A(13,14,15)           121.1907         estimate D2E/DX2                !
 ! A41   A(13,14,27)           119.2131         estimate D2E/DX2                !
 ! A42   A(15,14,27)           119.5962         estimate D2E/DX2                !
 ! A43   A(10,15,14)           117.0337         estimate D2E/DX2                !
 ! A44   A(10,15,28)           120.9796         estimate D2E/DX2                !
 ! A45   A(14,15,28)           121.9866         estimate D2E/DX2                !
 ! A46   A(1,18,19)            123.07           estimate D2E/DX2                !
 ! A47   A(1,18,20)            116.5096         estimate D2E/DX2                !
 ! A48   A(19,18,20)           120.4193         estimate D2E/DX2                !
 ! A49   A(18,20,29)           111.2191         estimate D2E/DX2                !
 ! D1    D(6,1,2,3)              1.6675         estimate D2E/DX2                !
 ! D2    D(6,1,2,21)          -178.5846         estimate D2E/DX2                !
 ! D3    D(18,1,2,3)          -179.0984         estimate D2E/DX2                !
 ! D4    D(18,1,2,21)            0.6495         estimate D2E/DX2                !
 ! D5    D(2,1,6,5)             -1.8359         estimate D2E/DX2                !
 ! D6    D(2,1,6,24)           176.6758         estimate D2E/DX2                !
 ! D7    D(18,1,6,5)           178.9618         estimate D2E/DX2                !
 ! D8    D(18,1,6,24)           -2.5266         estimate D2E/DX2                !
 ! D9    D(2,1,18,19)          -23.2225         estimate D2E/DX2                !
 ! D10   D(2,1,18,20)          156.3804         estimate D2E/DX2                !
 ! D11   D(6,1,18,19)          155.9978         estimate D2E/DX2                !
 ! D12   D(6,1,18,20)          -24.3992         estimate D2E/DX2                !
 ! D13   D(1,2,3,4)             -0.2327         estimate D2E/DX2                !
 ! D14   D(1,2,3,22)           179.3351         estimate D2E/DX2                !
 ! D15   D(21,2,3,4)          -179.9732         estimate D2E/DX2                !
 ! D16   D(21,2,3,22)           -0.4054         estimate D2E/DX2                !
 ! D17   D(2,3,4,5)             -1.0197         estimate D2E/DX2                !
 ! D18   D(2,3,4,23)           179.8517         estimate D2E/DX2                !
 ! D19   D(22,3,4,5)           179.4097         estimate D2E/DX2                !
 ! D20   D(22,3,4,23)            0.2812         estimate D2E/DX2                !
 ! D21   D(3,4,5,6)              0.8477         estimate D2E/DX2                !
 ! D22   D(3,4,5,7)           -179.3777         estimate D2E/DX2                !
 ! D23   D(23,4,5,6)           179.9828         estimate D2E/DX2                !
 ! D24   D(23,4,5,7)            -0.2426         estimate D2E/DX2                !
 ! D25   D(4,5,6,1)              0.5725         estimate D2E/DX2                !
 ! D26   D(4,5,6,24)          -177.978          estimate D2E/DX2                !
 ! D27   D(7,5,6,1)           -179.2042         estimate D2E/DX2                !
 ! D28   D(7,5,6,24)             2.2454         estimate D2E/DX2                !
 ! D29   D(4,5,7,8)           -141.3253         estimate D2E/DX2                !
 ! D30   D(4,5,7,11)            38.2302         estimate D2E/DX2                !
 ! D31   D(6,5,7,8)             38.4511         estimate D2E/DX2                !
 ! D32   D(6,5,7,11)          -141.9934         estimate D2E/DX2                !
 ! D33   D(5,7,8,9)            179.4365         estimate D2E/DX2                !
 ! D34   D(5,7,8,17)            -0.5117         estimate D2E/DX2                !
 ! D35   D(11,7,8,9)            -0.1707         estimate D2E/DX2                !
 ! D36   D(11,7,8,17)          179.8811         estimate D2E/DX2                !
 ! D37   D(5,7,11,10)         -179.5476         estimate D2E/DX2                !
 ! D38   D(5,7,11,16)            0.6591         estimate D2E/DX2                !
 ! D39   D(8,7,11,10)            0.0578         estimate D2E/DX2                !
 ! D40   D(8,7,11,16)         -179.7356         estimate D2E/DX2                !
 ! D41   D(7,8,9,10)             0.2249         estimate D2E/DX2                !
 ! D42   D(7,8,9,12)          -179.9044         estimate D2E/DX2                !
 ! D43   D(17,8,9,10)         -179.8286         estimate D2E/DX2                !
 ! D44   D(17,8,9,12)            0.0421         estimate D2E/DX2                !
 ! D45   D(8,9,10,11)           -0.1927         estimate D2E/DX2                !
 ! D46   D(8,9,10,15)          179.7821         estimate D2E/DX2                !
 ! D47   D(12,9,10,11)         179.9243         estimate D2E/DX2                !
 ! D48   D(12,9,10,15)          -0.1008         estimate D2E/DX2                !
 ! D49   D(8,9,12,13)         -179.815          estimate D2E/DX2                !
 ! D50   D(8,9,12,25)            0.1361         estimate D2E/DX2                !
 ! D51   D(10,9,12,13)           0.0407         estimate D2E/DX2                !
 ! D52   D(10,9,12,25)         179.9918         estimate D2E/DX2                !
 ! D53   D(9,10,11,7)            0.0888         estimate D2E/DX2                !
 ! D54   D(9,10,11,16)         179.8749         estimate D2E/DX2                !
 ! D55   D(15,10,11,7)        -179.8834         estimate D2E/DX2                !
 ! D56   D(15,10,11,16)         -0.0974         estimate D2E/DX2                !
 ! D57   D(9,10,15,14)           0.0864         estimate D2E/DX2                !
 ! D58   D(9,10,15,28)        -179.9291         estimate D2E/DX2                !
 ! D59   D(11,10,15,14)       -179.9446         estimate D2E/DX2                !
 ! D60   D(11,10,15,28)          0.0399         estimate D2E/DX2                !
 ! D61   D(9,12,13,14)           0.027          estimate D2E/DX2                !
 ! D62   D(9,12,13,26)         179.9792         estimate D2E/DX2                !
 ! D63   D(25,12,13,14)       -179.9235         estimate D2E/DX2                !
 ! D64   D(25,12,13,26)          0.0286         estimate D2E/DX2                !
 ! D65   D(12,13,14,15)         -0.0383         estimate D2E/DX2                !
 ! D66   D(12,13,14,27)        179.9594         estimate D2E/DX2                !
 ! D67   D(26,13,14,15)       -179.9906         estimate D2E/DX2                !
 ! D68   D(26,13,14,27)          0.0072         estimate D2E/DX2                !
 ! D69   D(13,14,15,10)         -0.0184         estimate D2E/DX2                !
 ! D70   D(13,14,15,28)        179.9973         estimate D2E/DX2                !
 ! D71   D(27,14,15,10)        179.9839         estimate D2E/DX2                !
 ! D72   D(27,14,15,28)         -0.0004         estimate D2E/DX2                !
 ! D73   D(1,18,20,29)         180.0            estimate D2E/DX2                !
 ! D74   D(19,18,20,29)         -0.3858         estimate D2E/DX2                !
 --------------------------------------------------------------------------------
 Trust Radius=3.00D-01 FncErr=1.00D-07 GrdErr=1.00D-06 EigMax=2.50D+02 EigMin=1.00D-04
 Number of steps in this run=    164 maximum allowed number of steps=    174.
 GradGradGradGradGradGradGradGradGradGradGradGradGradGradGradGradGradGrad

                          Input orientation:                          
 ---------------------------------------------------------------------
 Center     Atomic      Atomic             Coordinates (Angstroms)
 Number     Number       Type             X           Y           Z
 ---------------------------------------------------------------------
      1          6           0        4.870309   -0.427498    0.800032
      2          6           0        5.680264    0.689909    0.633878
      3          6           0        6.325996    1.236225    1.729392
      4          6           0        6.168116    0.681604    2.991306
      5          6           0        5.336729   -0.419452    3.156437
      6          6           0        4.681883   -0.972198    2.062740
      7          7           0        5.152652   -0.991784    4.440682
      8          6           0        5.053418   -2.375621    4.683225
      9          6           0        4.882598   -2.520666    6.153940
     10          6           0        4.880249   -1.260348    6.721748
     11          6           0        5.054229   -0.253655    5.639372
     12          6           0        4.740222   -3.661180    6.915790
     13          6           0        4.592156   -3.489936    8.289436
     14          6           0        4.588382   -2.219640    8.861658
     15          6           0        4.733323   -1.076426    8.080330
     16          8           0        5.100761    0.939481    5.733043
     17          8           0        5.101435   -3.239520    3.851889
     18          6           0        4.206901   -0.998493   -0.415676
     19          8           0        3.997468   -0.360812   -1.404411
     20          8           0        3.852405   -2.297303   -0.353469
     21          1           0        5.792017    1.108432   -0.356223
     22          1           0        6.965725    2.098463    1.605543
     23          1           0        6.673432    1.106107    3.844945
     24          1           0        4.015446   -1.807031    2.222195
     25          1           0        4.743784   -4.640488    6.458076
     26          1           0        4.477070   -4.356097    8.926112
     27          1           0        4.470533   -2.123431    9.932043
     28          1           0        4.732205   -0.084780    8.510682
     29          1           0        3.434262   -2.584045   -1.172128
 ---------------------------------------------------------------------
                    Distance matrix (angstroms):
                    1          2          3          4          5
     1  C    0.000000
     2  C    1.390047   0.000000
     3  C    2.398063   1.384045   0.000000
     4  C    2.777785   2.407391   1.387428   0.000000
     5  C    2.402136   2.777049   2.399244   1.389531   0.000000
     6  C    1.388033   2.408529   2.773330   2.409603   1.389433
     7  N    3.694925   4.195023   3.700250   2.435587   1.418003
     8  C    4.348322   5.117384   4.836323   3.667665   2.497588
     9  C    5.748551   6.435460   5.981158   4.680742   3.688680
    10  C    5.980005   6.442490   5.765993   4.398406   3.691466
    11  C    4.845953   5.131978   4.373223   3.021210   2.504449
    12  C    6.919257   7.699225   7.307392   6.024967   4.999736
    13  C    8.096115   8.789917   8.269038   6.924997   6.027432
    14  C    8.263236   8.795114   8.113662   6.736008   6.029116
    15  C    7.310446   7.711438   6.944018   5.572026   5.004042
    16  O    5.124094   5.138053   4.197437   2.953451   2.922547
    17  O    4.156287   5.111854   5.102631   4.153749   2.914070
    18  C    1.498029   2.474482   3.753111   4.275116   3.791015
    19  O    2.371891   2.844370   4.218209   5.012052   4.753777
    20  O    2.421335   3.638593   4.789862   5.042214   4.248410
    21  H    2.132030   1.080718   2.156677   3.395524   3.857524
    22  H    3.379363   2.140226   1.080762   2.136354   3.376210
    23  H    3.856772   3.386821   2.147838   1.079003   2.141996
    24  H    2.157881   3.395449   3.852648   3.379175   2.131660
    25  H    7.055406   7.950560   7.707114   6.509369   5.391618
    26  H    9.034473   9.781155   9.299751   7.966178   7.037424
    27  H    9.296754   9.789494   9.056132   7.676187   7.040077
    28  H    7.719498   7.971385   7.090212   5.754363   5.398647
    29  H    3.256124   4.361761   5.601375   5.955888   5.200127
                    6          7          8          9         10
     6  C    0.000000
     7  N    2.424173   0.000000
     8  C    2.995759   1.408431   0.000000
     9  C    4.379036   2.312069   1.487690   0.000000
    10  C    4.672123   2.312919   2.330107   1.382322   0.000000
    11  C    3.667048   1.411163   2.327436   2.331004   1.488367
    12  C    5.548524   3.663596   2.595207   1.378934   2.412728
    13  C    6.717052   4.622535   3.802528   2.363088   2.740750
    14  C    6.913040   4.622884   4.207123   2.740240   2.363185
    15  C    6.018712   3.664702   3.651122   2.412279   1.378826
    16  O    4.159459   2.324366   3.477681   3.492473   2.421861
    17  O    2.918532   2.324138   1.199895   2.421586   3.493156
    18  C    2.523658   4.947596   5.349006   6.777421   7.173896
    19  O    3.586552   5.991467   6.498753   7.910568   8.223315
    20  O    2.877847   5.136040   5.178499   6.592235   7.224295
    21  H    3.378284   5.275414   6.170914   7.508636   7.519316
    22  H    3.854079   4.568903   5.757298   6.809089   6.465785
    23  H    3.385539   2.658725   3.930596   4.657469   4.134199
    24  H    1.080050   2.622890   2.730815   4.088991   4.614404
    25  H    5.725308   4.189283   2.894061   2.146022   3.393154
    26  H    7.654971   5.647486   4.717685   3.349358   3.821706
    27  H    7.955874   5.648094   5.287102   3.821211   3.349444
    28  H    6.508916   4.190982   4.472198   3.392696   2.145731
    29  H    3.823478   6.082088   6.078673   7.468130   8.133654
                   11         12         13         14         15
    11  C    0.000000
    12  C    3.652269   0.000000
    13  C    4.208309   1.392175   0.000000
    14  C    3.803319   2.426416   1.393236   0.000000
    15  C    2.595806   2.834987   2.426661   1.392271   0.000000
    16  O    1.197712   4.763923   5.139413   4.475579   3.115871
    17  O    3.480333   3.113802   4.473689   5.138206   4.763842
    18  C    6.159250   7.818231   9.062819   9.365129   8.512656
    19  O    7.123420   8.981640  10.203712  10.449717   9.540120
    20  O    6.444768   7.449195   8.756107   9.244796   8.567119
    21  H    6.192477   8.760002   9.865702   9.873911   8.778945
    22  H    5.045598   8.144021   9.029865   8.772057   7.548935
    23  H    2.773218   5.991194   6.723750   6.369884   5.144507
    24  H    3.894759   5.098334   6.322672   6.676898   5.947006
    25  H    4.473361   1.080999   2.168096   3.414947   3.915910
    26  H    5.288270   2.143257   1.081127   2.140326   3.396653
    27  H    4.718452   3.396349   2.140161   1.081143   2.143389
    28  H    2.894241   3.915913   3.415209   2.168293   1.081002
    29  H    7.379130   8.263182   9.575101  10.106515   9.464062
                   16         17         18         19         20
    16  O    0.000000
    17  O    4.582881   0.000000
    18  C    6.508570   4.902500   0.000000
    19  O    7.338342   6.093799   1.195029   0.000000
    20  O    7.005769   4.486969   1.347755   2.208057   0.000000
    21  H    6.130705   6.090140   2.637283   2.545149   3.919328
    22  H    4.675210   6.084055   4.613846   4.890645   5.731775
    23  H    2.462919   4.621222   5.354065   6.071933   6.096562
    24  H    4.587733   2.426377   2.765637   3.904374   2.626974
    25  H    5.638188   2.980408   7.797489   8.982834   7.258251
    26  H    6.215129   5.233002   9.930534  11.086569   9.525726
    27  H    5.235477   6.213852  10.412026  11.482413  10.305536
    28  H    2.983324   5.638534   8.988363   9.946109   9.178370
    29  H    7.929303   5.333842   1.919158   2.305194   0.962947
                   21         22         23         24         25
    21  H    0.000000
    22  H    2.491240   0.000000
    23  H    4.292635   2.466806   0.000000
    24  H    4.278360   4.933284   4.264338   0.000000
    25  H    8.976833   8.596369   6.601162   5.147975   0.000000
    26  H   10.851355  10.072015   7.776755   7.187026   2.498643
    27  H   10.864607   9.663384   7.234323   7.729746   4.298685
    28  H    9.009381   7.578661   5.191885   6.559341   4.996779
    29  H    4.456354   6.489420   7.020005   3.530291   8.010232
                   26         27         28         29
    26  H    0.000000
    27  H    2.448824   0.000000
    28  H    4.299049   2.498968   0.000000
    29  H   10.305439  11.161929  10.084036   0.000000
 Stoichiometry    C15H9NO4
 Framework group  C1[X(C15H9NO4)]
 Deg. of freedom    81
 Full point group                 C1      NOp   1
 Largest Abelian subgroup         C1      NOp   1
 Largest concise Abelian subgroup C1      NOp   1
                         Standard orientation:                         
 ---------------------------------------------------------------------
 Center     Atomic      Atomic             Coordinates (Angstroms)
 Number     Number       Type             X           Y           Z
 ---------------------------------------------------------------------
      1          6           0        3.138622    0.020724   -0.045923
      2          6           0        3.543589    1.280589    0.379485
      3          6           0        2.592588    2.223337    0.729351
      4          6           0        1.240006    1.923525    0.654575
      5          6           0        0.839853    0.671530    0.203818
      6          6           0        1.787718   -0.279741   -0.152775
      7          7           0       -0.538243    0.351497    0.108095
      8          6           0       -1.082704   -0.906235    0.432674
      9          6           0       -2.547312   -0.789106    0.199380
     10          6           0       -2.819508    0.490529   -0.247003
     11          6           0       -1.541172    1.249839   -0.314397
     12          6           0       -3.543328   -1.728307    0.364638
     13          6           0       -4.842912   -1.332367    0.060560
     14          6           0       -5.117173   -0.043077   -0.390681
     15          6           0       -4.101589    0.895390   -0.552809
     16          8           0       -1.366579    2.384636   -0.655372
     17          8           0       -0.465527   -1.860403    0.817905
     18          6           0        4.201412   -0.975601   -0.395070
     19          8           0        5.309131   -0.662089   -0.715641
     20          8           0        3.853712   -2.275806   -0.324244
     21          1           0        4.601211    1.496532    0.431961
     22          1           0        2.900711    3.201218    1.071192
     23          1           0        0.498690    2.657728    0.929609
     24          1           0        1.451216   -1.233645   -0.531381
     25          1           0       -3.315744   -2.725500    0.714455
     26          1           0       -5.655903   -2.035802    0.174837
     27          1           0       -6.138136    0.230319   -0.618185
     28          1           0       -4.299766    1.899052   -0.902029
     29          1           0        4.590990   -2.847260   -0.563259
 ---------------------------------------------------------------------
 Rotational constants (GHZ):           0.8574949           0.1851449           0.1579625
 Standard basis: Aug-CC-pVTZ (5D, 7F)
 There are  1325 symmetry adapted cartesian basis functions of A   symmetry.
 There are  1127 symmetry adapted basis functions of A   symmetry.
  1127 basis functions,  1683 primitive gaussians,  1325 cartesian basis functions
    69 alpha electrons       69 beta electrons
       nuclear repulsion energy      1415.8442055868 Hartrees.
 NAtoms=   29 NActive=   29 NUniq=   29 SFac= 1.00D+00 NAtFMM=   60 NAOKFM=F Big=F
 Integral buffers will be    131072 words long.
 Raffenetti 2 integral format.
 Two-electron integral symmetry is turned on.
 One-electron integrals computed using PRISM.
 NBasis=  1127 RedAO= T EigKep=  1.05D-06  NBF=  1127
 NBsUse=  1121 1.00D-06 EigRej=  7.46D-07 NBFU=  1121
 ExpMin= 2.53D-02 ExpMax= 1.53D+04 ExpMxC= 5.22D+02 IAcc=3 IRadAn=         5 AccDes= 0.00D+00
 Harris functional with IExCor= 1009 and IRadAn=       5 diagonalized for initial guess.
 HarFok:  IExCor= 1009 AccDes= 0.00D+00 IRadAn=         5 IDoV= 1 UseB2=F ITyADJ=14
 ICtDFT=  3500011 ScaDFX=  1.000000  1.000000  1.000000  1.000000
 FoFCou: FMM=F IPFlag=           0 FMFlag=      100000 FMFlg1=           0
         NFxFlg=           0 DoJE=T BraDBF=F KetDBF=T FulRan=T
         wScrn=  0.000000 ICntrl=       500 IOpCl=  0 I1Cent=   200000004 NGrid=           0
         NMat0=    1 NMatS0=      1 NMatT0=    0 NMatD0=    1 NMtDS0=    0 NMtDT0=    0
 Petite list used in FoFCou.
 Requested convergence on RMS density matrix=1.00D-08 within 128 cycles.
 Requested convergence on MAX density matrix=1.00D-06.
 Requested convergence on             energy=1.00D-06.
 No special actions if energy rises.
 SCF Done:  E(RM062X) =  -932.710815231     A.U. after   14 cycles
            NFock= 14  Conv=0.79D-08     -V/T= 2.0050

 **********************************************************************

            Population analysis using the SCF Density.

 **********************************************************************

 Orbital symmetries:
       Occupied  (A) (A) (A) (A) (A) (A) (A) (A) (A) (A) (A) (A)
                 (A) (A) (A) (A) (A) (A) (A) (A) (A) (A) (A) (A)
                 (A) (A) (A) (A) (A) (A) (A) (A) (A) (A) (A) (A)
                 (A) (A) (A) (A) (A) (A) (A) (A) (A) (A) (A) (A)
                 (A) (A) (A) (A) (A) (A) (A) (A) (A) (A) (A) (A)
                 (A) (A) (A) (A) (A) (A) (A) (A) (A)
       Virtual   (A) (A) (A) (A) (A) (A) (A) (A) (A) (A) (A) (A)
                 (A) (A) (A) (A) (A) (A) (A) (A) (A) (A) (A) (A)
                 (A) (A) (A) (A) (A) (A) (A) (A) (A) (A) (A) (A)
                 (A) (A) (A) (A) (A) (A) (A) (A) (A) (A) (A) (A)
                 (A) (A) (A) (A) (A) (A) (A) (A) (A) (A) (A) (A)
                 (A) (A) (A) (A) (A) (A) (A) (A) (A) (A) (A) (A)
                 (A) (A) (A) (A) (A) (A) (A) (A) (A) (A) (A) (A)
                 (A) (A) (A) (A) (A) (A) (A) (A) (A) (A) (A) (A)
                 (A) (A) (A) (A) (A) (A) (A) (A) (A) (A) (A) (A)
                 (A) (A) (A) (A) (A) (A) (A) (A) (A) (A) (A) (A)
                 (A) (A) (A) (A) (A) (A) (A) (A) (A) (A) (A) (A)
                 (A) (A) (A) (A) (A) (A) (A) (A) (A) (A) (A) (A)
                 (A) (A) (A) (A) (A) (A) (A) (A) (A) (A) (A) (A)
                 (A) (A) (A) (A) (A) (A) (A) (A) (A) (A) (A) (A)
                 (A) (A) (A) (A) (A) (A) (A) (A) (A) (A) (A) (A)
                 (A) (A) (A) (A) (A) (A) (A) (A) (A) (A) (A) (A)
                 (A) (A) (A) (A) (A) (A) (A) (A) (A) (A) (A) (A)
                 (A) (A) (A) (A) (A) (A) (A) (A) (A) (A) (A) (A)
                 (A) (A) (A) (A) (A) (A) (A) (A) (A) (A) (A) (A)
                 (A) (A) (A) (A) (A) (A) (A) (A) (A) (A) (A) (A)
                 (A) (A) (A) (A) (A) (A) (A) (A) (A) (A) (A) (A)
                 (A) (A) (A) (A) (A) (A) (A) (A) (A) (A) (A) (A)
                 (A) (A) (A) (A) (A) (A) (A) (A) (A) (A) (A) (A)
                 (A) (A) (A) (A) (A) (A) (A) (A) (A) (A) (A) (A)
                 (A) (A) (A) (A) (A) (A) (A) (A) (A) (A) (A) (A)
                 (A) (A) (A) (A) (A) (A) (A) (A) (A) (A) (A) (A)
                 (A) (A) (A) (A) (A) (A) (A) (A) (A) (A) (A) (A)
                 (A) (A) (A) (A) (A) (A) (A) (A) (A) (A) (A) (A)
                 (A) (A) (A) (A) (A) (A) (A) (A) (A) (A) (A) (A)
                 (A) (A) (A) (A) (A) (A) (A) (A) (A) (A) (A) (A)
                 (A) (A) (A) (A) (A) (A) (A) (A) (A) (A) (A) (A)
                 (A) (A) (A) (A) (A) (A) (A) (A) (A) (A) (A) (A)
                 (A) (A) (A) (A) (A) (A) (A) (A) (A) (A) (A) (A)
                 (A) (A) (A) (A) (A) (A) (A) (A) (A) (A) (A) (A)
                 (A) (A) (A) (A) (A) (A) (A) (A) (A) (A) (A) (A)
                 (A) (A) (A) (A) (A) (A) (A) (A) (A) (A) (A) (A)
                 (A) (A) (A) (A) (A) (A) (A) (A) (A) (A) (A) (A)
                 (A) (A) (A) (A) (A) (A) (A) (A) (A) (A) (A) (A)
                 (A) (A) (A) (A) (A) (A) (A) (A) (A) (A) (A) (A)
                 (A) (A) (A) (A) (A) (A) (A) (A) (A) (A) (A) (A)
                 (A) (A) (A) (A) (A) (A) (A) (A) (A) (A) (A) (A)
                 (A) (A) (A) (A) (A) (A) (A) (A) (A) (A) (A) (A)
                 (A) (A) (A) (A) (A) (A) (A) (A) (A) (A) (A) (A)
                 (A) (A) (A) (A) (A) (A) (A) (A) (A) (A) (A) (A)
                 (A) (A) (A) (A) (A) (A) (A) (A) (A) (A) (A) (A)
                 (A) (A) (A) (A) (A) (A) (A) (A) (A) (A) (A) (A)
                 (A) (A) (A) (A) (A) (A) (A) (A) (A) (A) (A) (A)
                 (A) (A) (A) (A) (A) (A) (A) (A) (A) (A) (A) (A)
                 (A) (A) (A) (A) (A) (A) (A) (A) (A) (A) (A) (A)
                 (A) (A) (A) (A) (A) (A) (A) (A) (A) (A) (A) (A)
                 (A) (A) (A) (A) (A) (A) (A) (A) (A) (A) (A) (A)
                 (A) (A) (A) (A) (A) (A) (A) (A) (A) (A) (A) (A)
                 (A) (A) (A) (A) (A) (A) (A) (A) (A) (A) (A) (A)
                 (A) (A) (A) (A) (A) (A) (A) (A) (A) (A) (A) (A)
                 (A) (A) (A) (A) (A) (A) (A) (A) (A) (A) (A) (A)
                 (A) (A) (A) (A) (A) (A) (A) (A) (A) (A) (A) (A)
                 (A) (A) (A) (A) (A) (A) (A) (A) (A) (A) (A) (A)
                 (A) (A) (A) (A) (A) (A) (A) (A) (A) (A) (A) (A)
                 (A) (A) (A) (A) (A) (A) (A) (A) (A) (A) (A) (A)
                 (A) (A) (A) (A) (A) (A) (A) (A) (A) (A) (A) (A)
                 (A) (A) (A) (A) (A) (A) (A) (A) (A) (A) (A) (A)
                 (A) (A) (A) (A) (A) (A) (A) (A) (A) (A) (A) (A)
                 (A) (A) (A) (A) (A) (A) (A) (A) (A) (A) (A) (A)
                 (A) (A) (A) (A) (A) (A) (A) (A) (A) (A) (A) (A)
                 (A) (A) (A) (A) (A) (A) (A) (A) (A) (A) (A) (A)
                 (A) (A) (A) (A) (A) (A) (A) (A) (A) (A) (A) (A)
                 (A) (A) (A) (A) (A) (A) (A) (A) (A) (A) (A) (A)
                 (A) (A) (A) (A) (A) (A) (A) (A) (A) (A) (A) (A)
                 (A) (A) (A) (A) (A) (A) (A) (A) (A) (A) (A) (A)
                 (A) (A) (A) (A) (A) (A) (A) (A) (A) (A) (A) (A)
                 (A) (A) (A) (A) (A) (A) (A) (A) (A) (A) (A) (A)
                 (A) (A) (A) (A) (A) (A) (A) (A) (A) (A) (A) (A)
                 (A) (A) (A) (A) (A) (A) (A) (A) (A) (A) (A) (A)
                 (A) (A) (A) (A) (A) (A) (A) (A) (A) (A) (A) (A)
                 (A) (A) (A) (A) (A) (A) (A) (A) (A) (A) (A) (A)
                 (A) (A) (A) (A) (A) (A) (A) (A) (A) (A) (A) (A)
                 (A) (A) (A) (A) (A) (A) (A) (A) (A) (A) (A) (A)
                 (A) (A) (A) (A) (A) (A) (A) (A) (A) (A) (A) (A)
                 (A) (A) (A) (A) (A) (A) (A) (A) (A) (A) (A) (A)
                 (A) (A) (A) (A) (A) (A) (A) (A) (A) (A) (A) (A)
                 (A) (A) (A) (A) (A) (A) (A) (A) (A) (A) (A) (A)
                 (A) (A) (A) (A) (A) (A) (A) (A) (A) (A) (A) (A)
                 (A) (A) (A) (A) (A) (A) (A) (A) (A) (A) (A) (A)
                 (A) (A) (A) (A) (A) (A) (A) (A) (A) (A) (A) (A)
                 (A) (A) (A) (A) (A) (A) (A) (A) (A) (A) (A) (A)
                 (A) (A) (A) (A) (A) (A) (A) (A) (A) (A) (A) (A)
                 (A) (A) (A) (A) (A) (A) (A) (A) (A) (A) (A) (A)
                 (A) (A) (A) (A) (A) (A) (A) (A)
 The electronic state is 1-A.
 Alpha  occ. eigenvalues --  -19.67330 -19.64169 -19.64021 -19.61819 -14.82013
 Alpha  occ. eigenvalues --  -10.68536 -10.68434 -10.68380 -10.60699 -10.58428
 Alpha  occ. eigenvalues --  -10.58345 -10.58229 -10.58211 -10.58051 -10.57972
 Alpha  occ. eigenvalues --  -10.57216 -10.56417 -10.56287 -10.55935 -10.55817
 Alpha  occ. eigenvalues --   -1.24366  -1.22077  -1.20289  -1.14671  -1.09798
 Alpha  occ. eigenvalues --   -1.01263  -0.98341  -0.91756  -0.88920  -0.87949
 Alpha  occ. eigenvalues --   -0.85690  -0.77921  -0.76996  -0.76319  -0.72240
 Alpha  occ. eigenvalues --   -0.70416  -0.69233  -0.66245  -0.62893  -0.61107
 Alpha  occ. eigenvalues --   -0.59097  -0.58826  -0.58077  -0.57433  -0.56544
 Alpha  occ. eigenvalues --   -0.55012  -0.54451  -0.54232  -0.53529  -0.53141
 Alpha  occ. eigenvalues --   -0.52655  -0.51225  -0.49597  -0.48382  -0.47565
 Alpha  occ. eigenvalues --   -0.46380  -0.45841  -0.45444  -0.44286  -0.43526
 Alpha  occ. eigenvalues --   -0.40550  -0.38888  -0.38255  -0.36512  -0.35749
 Alpha  occ. eigenvalues --   -0.34926  -0.34696  -0.32717  -0.30563
 Alpha virt. eigenvalues --   -0.06363  -0.03438  -0.02191  -0.01286  -0.00361
 Alpha virt. eigenvalues --    0.00139   0.00494   0.00593   0.00945   0.01733
 Alpha virt. eigenvalues --    0.02426   0.02531   0.02916   0.03462   0.03652
 Alpha virt. eigenvalues --    0.04260   0.04568   0.04599   0.05044   0.05639
 Alpha virt. eigenvalues --    0.05918   0.06280   0.06669   0.06890   0.06976
 Alpha virt. eigenvalues --    0.07280   0.07405   0.07853   0.08007   0.08234
 Alpha virt. eigenvalues --    0.08556   0.08824   0.09083   0.09272   0.09433
 Alpha virt. eigenvalues --    0.09542   0.10130   0.10331   0.10492   0.10752
 Alpha virt. eigenvalues --    0.10961   0.11122   0.11475   0.11713   0.11930
 Alpha virt. eigenvalues --    0.12348   0.13012   0.13103   0.13544   0.13819
 Alpha virt. eigenvalues --    0.14197   0.14736   0.14962   0.15210   0.15507
 Alpha virt. eigenvalues --    0.15869   0.16103   0.16449   0.17046   0.17303
 Alpha virt. eigenvalues --    0.17612   0.17748   0.18549   0.18644   0.18690
 Alpha virt. eigenvalues --    0.19028   0.19289   0.19445   0.19540   0.19645
 Alpha virt. eigenvalues --    0.19734   0.20202   0.20485   0.20606   0.20835
 Alpha virt. eigenvalues --    0.21166   0.21423   0.21527   0.21770   0.21950
 Alpha virt. eigenvalues --    0.22348   0.22385   0.22538   0.22873   0.22966
 Alpha virt. eigenvalues --    0.23297   0.23607   0.23767   0.24194   0.24430
 Alpha virt. eigenvalues --    0.24543   0.24933   0.24968   0.25316   0.25586
 Alpha virt. eigenvalues --    0.25751   0.25954   0.26253   0.26545   0.27029
 Alpha virt. eigenvalues --    0.27180   0.27626   0.27768   0.28053   0.28269
 Alpha virt. eigenvalues --    0.28799   0.29358   0.29721   0.29820   0.30189
 Alpha virt. eigenvalues --    0.30525   0.30598   0.31413   0.31927   0.32107
 Alpha virt. eigenvalues --    0.32362   0.32876   0.33038   0.33537   0.33625
 Alpha virt. eigenvalues --    0.33686   0.33976   0.34167   0.34258   0.34796
 Alpha virt. eigenvalues --    0.35199   0.35520   0.35601   0.35988   0.36251
 Alpha virt. eigenvalues --    0.36696   0.36780   0.37005   0.37110   0.37464
 Alpha virt. eigenvalues --    0.37921   0.38177   0.38487   0.38724   0.38805
 Alpha virt. eigenvalues --    0.39086   0.39205   0.39601   0.39849   0.40337
 Alpha virt. eigenvalues --    0.40591   0.40739   0.41285   0.41465   0.41605
 Alpha virt. eigenvalues --    0.41724   0.41891   0.42295   0.42708   0.42856
 Alpha virt. eigenvalues --    0.43077   0.43116   0.43597   0.43791   0.44080
 Alpha virt. eigenvalues --    0.44462   0.45022   0.45167   0.45415   0.45540
 Alpha virt. eigenvalues --    0.45880   0.45896   0.46205   0.46546   0.46932
 Alpha virt. eigenvalues --    0.47165   0.47847   0.47915   0.48076   0.48463
 Alpha virt. eigenvalues --    0.48620   0.49046   0.49464   0.49665   0.50684
 Alpha virt. eigenvalues --    0.51218   0.51433   0.51927   0.52448   0.52907
 Alpha virt. eigenvalues --    0.53357   0.53415   0.53854   0.53998   0.54325
 Alpha virt. eigenvalues --    0.54746   0.55044   0.55673   0.56123   0.56385
 Alpha virt. eigenvalues --    0.56466   0.56763   0.57889   0.58007   0.58368
 Alpha virt. eigenvalues --    0.58674   0.59149   0.60055   0.60366   0.60827
 Alpha virt. eigenvalues --    0.61073   0.61615   0.61668   0.62362   0.62451
 Alpha virt. eigenvalues --    0.62801   0.63656   0.63803   0.64055   0.64431
 Alpha virt. eigenvalues --    0.64784   0.65167   0.65851   0.66549   0.66667
 Alpha virt. eigenvalues --    0.66938   0.67311   0.67919   0.67969   0.68470
 Alpha virt. eigenvalues --    0.69006   0.69678   0.69882   0.70488   0.70795
 Alpha virt. eigenvalues --    0.71152   0.71482   0.71932   0.72441   0.72751
 Alpha virt. eigenvalues --    0.72873   0.73210   0.73429   0.73816   0.74117
 Alpha virt. eigenvalues --    0.74394   0.74519   0.75337   0.75655   0.75768
 Alpha virt. eigenvalues --    0.76284   0.76502   0.76851   0.77152   0.77408
 Alpha virt. eigenvalues --    0.78027   0.78225   0.78350   0.78572   0.79125
 Alpha virt. eigenvalues --    0.79571   0.79681   0.80005   0.80253   0.80446
 Alpha virt. eigenvalues --    0.80872   0.80891   0.81435   0.81601   0.81740
 Alpha virt. eigenvalues --    0.82102   0.82508   0.82852   0.82888   0.83238
 Alpha virt. eigenvalues --    0.83587   0.84231   0.84327   0.85063   0.85286
 Alpha virt. eigenvalues --    0.85585   0.85815   0.86422   0.87025   0.87334
 Alpha virt. eigenvalues --    0.87719   0.88068   0.88825   0.88871   0.89251
 Alpha virt. eigenvalues --    0.89524   0.89992   0.90474   0.90646   0.90958
 Alpha virt. eigenvalues --    0.91192   0.91736   0.91810   0.92115   0.92900
 Alpha virt. eigenvalues --    0.92997   0.93378   0.93966   0.94099   0.94342
 Alpha virt. eigenvalues --    0.94606   0.94685   0.95235   0.95852   0.96041
 Alpha virt. eigenvalues --    0.96373   0.96795   0.97075   0.97337   0.97796
 Alpha virt. eigenvalues --    0.97991   0.98314   0.98647   0.99047   0.99220
 Alpha virt. eigenvalues --    0.99641   0.99811   1.00058   1.00924   1.01143
 Alpha virt. eigenvalues --    1.01325   1.01515   1.01781   1.02455   1.02873
 Alpha virt. eigenvalues --    1.03367   1.03627   1.03840   1.03945   1.04581
 Alpha virt. eigenvalues --    1.04656   1.04936   1.05244   1.05377   1.05969
 Alpha virt. eigenvalues --    1.06390   1.06672   1.06989   1.07352   1.07892
 Alpha virt. eigenvalues --    1.08212   1.08626   1.08842   1.09356   1.10034
 Alpha virt. eigenvalues --    1.10363   1.10489   1.11054   1.11474   1.11654
 Alpha virt. eigenvalues --    1.12262   1.12518   1.12895   1.13540   1.13715
 Alpha virt. eigenvalues --    1.14147   1.14863   1.15883   1.16340   1.16498
 Alpha virt. eigenvalues --    1.16888   1.17044   1.17446   1.18716   1.18997
 Alpha virt. eigenvalues --    1.19537   1.20122   1.20441   1.20922   1.21480
 Alpha virt. eigenvalues --    1.21535   1.22211   1.22382   1.22597   1.23491
 Alpha virt. eigenvalues --    1.23808   1.24265   1.25398   1.25467   1.26546
 Alpha virt. eigenvalues --    1.26771   1.27103   1.27758   1.27924   1.28799
 Alpha virt. eigenvalues --    1.28933   1.29659   1.30131   1.30455   1.30767
 Alpha virt. eigenvalues --    1.31599   1.32017   1.32188   1.32843   1.33345
 Alpha virt. eigenvalues --    1.33650   1.33783   1.34220   1.34863   1.35363
 Alpha virt. eigenvalues --    1.36321   1.36499   1.37004   1.37271   1.37518
 Alpha virt. eigenvalues --    1.38541   1.39014   1.39476   1.39734   1.40571
 Alpha virt. eigenvalues --    1.41467   1.41658   1.42500   1.43050   1.43854
 Alpha virt. eigenvalues --    1.44389   1.44539   1.44914   1.45506   1.45921
 Alpha virt. eigenvalues --    1.46298   1.46649   1.46979   1.47745   1.48335
 Alpha virt. eigenvalues --    1.48522   1.49171   1.49798   1.50511   1.51306
 Alpha virt. eigenvalues --    1.51803   1.52132   1.52518   1.53394   1.54841
 Alpha virt. eigenvalues --    1.55079   1.55964   1.56270   1.56403   1.57134
 Alpha virt. eigenvalues --    1.57541   1.57984   1.58870   1.59199   1.59667
 Alpha virt. eigenvalues --    1.59706   1.60981   1.61342   1.61644   1.62334
 Alpha virt. eigenvalues --    1.62474   1.63259   1.63731   1.63891   1.64611
 Alpha virt. eigenvalues --    1.65183   1.65653   1.66623   1.66991   1.67356
 Alpha virt. eigenvalues --    1.67825   1.68114   1.68769   1.69417   1.69627
 Alpha virt. eigenvalues --    1.70414   1.70827   1.71154   1.71266   1.71598
 Alpha virt. eigenvalues --    1.71971   1.72618   1.73227   1.73654   1.74195
 Alpha virt. eigenvalues --    1.74754   1.75040   1.75825   1.76779   1.77672
 Alpha virt. eigenvalues --    1.78171   1.78434   1.79033   1.79929   1.80404
 Alpha virt. eigenvalues --    1.80963   1.81217   1.82287   1.82567   1.83062
 Alpha virt. eigenvalues --    1.83620   1.84272   1.84658   1.85296   1.85672
 Alpha virt. eigenvalues --    1.86026   1.86544   1.87204   1.87415   1.87462
 Alpha virt. eigenvalues --    1.87873   1.88120   1.89265   1.89466   1.89752
 Alpha virt. eigenvalues --    1.91367   1.92082   1.92477   1.92967   1.93868
 Alpha virt. eigenvalues --    1.94079   1.94624   1.95226   1.96310   1.97243
 Alpha virt. eigenvalues --    1.97711   1.98048   1.98865   2.00089   2.00478
 Alpha virt. eigenvalues --    2.01388   2.01715   2.01963   2.02472   2.03636
 Alpha virt. eigenvalues --    2.03977   2.04875   2.05339   2.05971   2.06256
 Alpha virt. eigenvalues --    2.06576   2.07730   2.08981   2.09628   2.10285
 Alpha virt. eigenvalues --    2.11802   2.12351   2.13236   2.13752   2.14240
 Alpha virt. eigenvalues --    2.15569   2.15815   2.16149   2.17379   2.17779
 Alpha virt. eigenvalues --    2.18401   2.19197   2.19451   2.19965   2.20418
 Alpha virt. eigenvalues --    2.21494   2.22179   2.22837   2.24169   2.24389
 Alpha virt. eigenvalues --    2.25001   2.25118   2.25480   2.26572   2.27019
 Alpha virt. eigenvalues --    2.27835   2.28666   2.29489   2.29698   2.31771
 Alpha virt. eigenvalues --    2.31984   2.32341   2.33634   2.34055   2.34404
 Alpha virt. eigenvalues --    2.34495   2.35198   2.36303   2.36813   2.38384
 Alpha virt. eigenvalues --    2.38995   2.39203   2.39867   2.40585   2.41080
 Alpha virt. eigenvalues --    2.42205   2.42892   2.43973   2.44631   2.45261
 Alpha virt. eigenvalues --    2.45585   2.46047   2.46501   2.46974   2.47966
 Alpha virt. eigenvalues --    2.48769   2.49369   2.49440   2.51222   2.51372
 Alpha virt. eigenvalues --    2.52233   2.53623   2.53778   2.55662   2.56390
 Alpha virt. eigenvalues --    2.56706   2.58031   2.58712   2.58924   2.59789
 Alpha virt. eigenvalues --    2.61533   2.62609   2.63087   2.64176   2.65124
 Alpha virt. eigenvalues --    2.65916   2.66409   2.67485   2.69039   2.69576
 Alpha virt. eigenvalues --    2.70339   2.71179   2.71506   2.73400   2.74072
 Alpha virt. eigenvalues --    2.74821   2.75269   2.76505   2.77746   2.79655
 Alpha virt. eigenvalues --    2.80001   2.80873   2.81109   2.81615   2.82305
 Alpha virt. eigenvalues --    2.83033   2.83712   2.84215   2.84817   2.89070
 Alpha virt. eigenvalues --    2.90159   2.91543   2.92467   2.92875   2.93405
 Alpha virt. eigenvalues --    2.93792   2.94579   2.94997   2.96398   2.97057
 Alpha virt. eigenvalues --    2.97618   2.98557   3.00303   3.00519   3.01582
 Alpha virt. eigenvalues --    3.02450   3.03692   3.04344   3.05163   3.05485
 Alpha virt. eigenvalues --    3.06842   3.07505   3.07682   3.08475   3.09525
 Alpha virt. eigenvalues --    3.10216   3.10435   3.11683   3.12547   3.13480
 Alpha virt. eigenvalues --    3.14254   3.14595   3.15498   3.16055   3.16608
 Alpha virt. eigenvalues --    3.16986   3.17480   3.17858   3.18411   3.18556
 Alpha virt. eigenvalues --    3.19099   3.20106   3.21056   3.21824   3.22681
 Alpha virt. eigenvalues --    3.23089   3.23646   3.24038   3.24165   3.24722
 Alpha virt. eigenvalues --    3.25252   3.26102   3.26407   3.27271   3.27742
 Alpha virt. eigenvalues --    3.28979   3.29295   3.30440   3.30957   3.31519
 Alpha virt. eigenvalues --    3.32195   3.32640   3.33169   3.33781   3.34218
 Alpha virt. eigenvalues --    3.34631   3.35096   3.36236   3.36681   3.37655
 Alpha virt. eigenvalues --    3.38617   3.39476   3.40571   3.40781   3.42120
 Alpha virt. eigenvalues --    3.42444   3.42929   3.43152   3.43798   3.44361
 Alpha virt. eigenvalues --    3.45837   3.46341   3.46862   3.47977   3.48335
 Alpha virt. eigenvalues --    3.49217   3.49950   3.50264   3.51157   3.51400
 Alpha virt. eigenvalues --    3.52780   3.53954   3.55172   3.55590   3.56199
 Alpha virt. eigenvalues --    3.56982   3.57659   3.57838   3.58377   3.58945
 Alpha virt. eigenvalues --    3.59294   3.59795   3.60867   3.61355   3.61640
 Alpha virt. eigenvalues --    3.62256   3.63111   3.63495   3.64218   3.64646
 Alpha virt. eigenvalues --    3.64944   3.65445   3.66511   3.66938   3.67818
 Alpha virt. eigenvalues --    3.68042   3.68714   3.69311   3.70138   3.70484
 Alpha virt. eigenvalues --    3.71045   3.71948   3.72204   3.73176   3.73980
 Alpha virt. eigenvalues --    3.74789   3.75179   3.75818   3.77023   3.77695
 Alpha virt. eigenvalues --    3.78368   3.78920   3.79226   3.80682   3.81582
 Alpha virt. eigenvalues --    3.81923   3.82406   3.82425   3.83423   3.83997
 Alpha virt. eigenvalues --    3.84871   3.85555   3.86090   3.88017   3.88312
 Alpha virt. eigenvalues --    3.88820   3.89291   3.90278   3.90571   3.91621
 Alpha virt. eigenvalues --    3.91970   3.93180   3.93684   3.94433   3.94823
 Alpha virt. eigenvalues --    3.95057   3.95574   3.95652   3.97043   3.97501
 Alpha virt. eigenvalues --    3.97893   3.98306   3.98499   3.99351   3.99971
 Alpha virt. eigenvalues --    4.00765   4.01057   4.01342   4.02502   4.02657
 Alpha virt. eigenvalues --    4.03091   4.04561   4.04669   4.06228   4.07268
 Alpha virt. eigenvalues --    4.08001   4.09590   4.09641   4.10667   4.11209
 Alpha virt. eigenvalues --    4.11541   4.11956   4.12672   4.13039   4.13802
 Alpha virt. eigenvalues --    4.14842   4.16060   4.16818   4.17246   4.17410
 Alpha virt. eigenvalues --    4.18218   4.19917   4.21354   4.21806   4.22474
 Alpha virt. eigenvalues --    4.23331   4.23642   4.25305   4.27149   4.27362
 Alpha virt. eigenvalues --    4.28330   4.28709   4.30662   4.31197   4.31853
 Alpha virt. eigenvalues --    4.32293   4.34014   4.35698   4.35855   4.36701
 Alpha virt. eigenvalues --    4.37249   4.38540   4.38686   4.39247   4.40545
 Alpha virt. eigenvalues --    4.40754   4.41780   4.42215   4.43475   4.44610
 Alpha virt. eigenvalues --    4.45489   4.46750   4.47383   4.49635   4.50222
 Alpha virt. eigenvalues --    4.52024   4.52996   4.53712   4.54255   4.55708
 Alpha virt. eigenvalues --    4.55936   4.57285   4.58028   4.58156   4.59032
 Alpha virt. eigenvalues --    4.59928   4.60365   4.60714   4.61901   4.63248
 Alpha virt. eigenvalues --    4.64669   4.66283   4.67184   4.70273   4.72562
 Alpha virt. eigenvalues --    4.72938   4.73579   4.73723   4.74167   4.74927
 Alpha virt. eigenvalues --    4.76295   4.76857   4.77059   4.78201   4.79520
 Alpha virt. eigenvalues --    4.80121   4.80733   4.81524   4.82304   4.83548
 Alpha virt. eigenvalues --    4.84778   4.85621   4.86080   4.87762   4.88480
 Alpha virt. eigenvalues --    4.89511   4.90547   4.91115   4.93734   4.94623
 Alpha virt. eigenvalues --    4.95766   4.98162   4.99624   5.00226   5.01108
 Alpha virt. eigenvalues --    5.03820   5.04459   5.04718   5.05921   5.07136
 Alpha virt. eigenvalues --    5.07329   5.07566   5.09710   5.11714   5.12883
 Alpha virt. eigenvalues --    5.15478   5.16937   5.21525   5.21959   5.24171
 Alpha virt. eigenvalues --    5.24270   5.24869   5.28710   5.30443   5.32612
 Alpha virt. eigenvalues --    5.34272   5.34799   5.36524   5.37875   5.39278
 Alpha virt. eigenvalues --    5.40033   5.40801   5.42447   5.45024   5.49408
 Alpha virt. eigenvalues --    5.51387   5.54001   5.55158   5.56498   5.58372
 Alpha virt. eigenvalues --    5.62558   5.67466   5.71096   5.73683   5.74897
 Alpha virt. eigenvalues --    5.75427   5.75590   5.77928   5.81302   5.81787
 Alpha virt. eigenvalues --    5.85081   5.87005   5.90398   5.91954   5.93976
 Alpha virt. eigenvalues --    5.97616   5.98322   6.00450   6.02213   6.03203
 Alpha virt. eigenvalues --    6.08279   6.17358   6.17828   6.19202   6.20984
 Alpha virt. eigenvalues --    6.23126   6.24344   6.26106   6.30371   6.32578
 Alpha virt. eigenvalues --    6.32978   6.35033   6.37049   6.37607   6.38646
 Alpha virt. eigenvalues --    6.40106   6.41139   6.41941   6.42864   6.46031
 Alpha virt. eigenvalues --    6.46977   6.49026   6.50328   6.51862   6.54558
 Alpha virt. eigenvalues --    6.55898   6.58684   6.59536   6.60172   6.70692
 Alpha virt. eigenvalues --    6.72957   6.73791   6.74653   6.74975   6.76844
 Alpha virt. eigenvalues --    6.80042   6.82186   6.82367   6.83651   6.84209
 Alpha virt. eigenvalues --    6.86940   6.88454   6.89642   6.89898   6.90710
 Alpha virt. eigenvalues --    6.92976   6.99033   7.02503   7.11226   7.13115
 Alpha virt. eigenvalues --    7.17427   7.18182   7.21740   7.23143   7.27623
 Alpha virt. eigenvalues --    7.31628   7.33920   7.37174   7.41285   7.43989
 Alpha virt. eigenvalues --    7.45052   7.46997   7.50767   7.55370   7.59053
 Alpha virt. eigenvalues --    7.76108   8.03507  15.06289  15.12706  15.32984
 Alpha virt. eigenvalues --   15.94617  16.15810  16.31431  16.61629  17.28723
 Alpha virt. eigenvalues --   17.62579  18.03004  18.44042  18.96954  19.12186
 Alpha virt. eigenvalues --   19.22293  19.30135  19.54894  19.82290  20.12167
 Alpha virt. eigenvalues --   20.27045  21.28579
          Condensed to atoms (all electrons):
               1          2          3          4          5          6
     1  C    7.578630  -0.796386   0.397959  -0.597979   0.082538  -0.693246
     2  C   -0.796386   7.788231  -0.418370   0.296508  -0.478980   0.208235
     3  C    0.397959  -0.418370   7.409133  -0.602623   0.208455  -0.477234
     4  C   -0.597979   0.296508  -0.602623   8.405705  -0.958843   0.051171
     5  C    0.082538  -0.478980   0.208455  -0.958843  10.372468  -0.814326
     6  C   -0.693246   0.208235  -0.477234   0.051171  -0.814326   8.587496
     7  N    0.092724  -0.023198   0.139486  -0.349607  -0.756307  -0.238096
     8  C    0.079693  -0.067258   0.077486  -0.171365  -0.904395  -0.053727
     9  C   -0.037472   0.014351   0.021321   0.052490  -0.069264   0.016289
    10  C    0.021065   0.013030  -0.004518  -0.051290   0.246412  -0.059950
    11  C    0.008446   0.000301  -0.069577   0.135719  -1.141042   0.061951
    12  C    0.008617  -0.005861   0.007442  -0.012753   0.013981  -0.006458
    13  C    0.004603  -0.001320  -0.000078  -0.011173   0.040940  -0.010847
    14  C   -0.003656   0.001412  -0.000144   0.013560  -0.037294   0.004324
    15  C   -0.006902   0.005211  -0.004893   0.018964   0.036528  -0.003338
    16  O    0.002167   0.018383   0.005091  -0.061320   0.380026  -0.062760
    17  O   -0.028904   0.013212  -0.008583  -0.015520   0.364361  -0.121917
    18  C   -0.618119  -0.345189  -0.111075   0.161059   0.102575  -0.383764
    19  O   -0.185314   0.102306  -0.015913  -0.001483  -0.027435   0.146391
    20  O    0.033899   0.002869  -0.002031   0.006252  -0.012038  -0.010412
    21  H   -0.341313   0.416147  -0.422485   0.137051  -0.066056   0.039278
    22  H    0.111762  -0.354470   0.689530  -0.392731   0.156455  -0.049114
    23  H   -0.088292   0.090517  -0.455312   0.488344  -0.958211   0.180627
    24  H   -0.332571  -0.077709   0.022812  -0.063166  -0.450195   0.177299
    25  H    0.000809   0.000152  -0.000067  -0.000476  -0.016771   0.008183
    26  H    0.000069  -0.000007  -0.000025  -0.000046   0.002578  -0.000658
    27  H   -0.000101   0.000052   0.000009  -0.000108   0.001343   0.000057
    28  H   -0.000128  -0.000410   0.000742   0.005055  -0.027387   0.003998
    29  H   -0.028322  -0.005753  -0.001666   0.000315   0.007173  -0.030429
               7          8          9         10         11         12
     1  C    0.092724   0.079693  -0.037472   0.021065   0.008446   0.008617
     2  C   -0.023198  -0.067258   0.014351   0.013030   0.000301  -0.005861
     3  C    0.139486   0.077486   0.021321  -0.004518  -0.069577   0.007442
     4  C   -0.349607  -0.171365   0.052490  -0.051290   0.135719  -0.012753
     5  C   -0.756307  -0.904395  -0.069264   0.246412  -1.141042   0.013981
     6  C   -0.238096  -0.053727   0.016289  -0.059950   0.061951  -0.006458
     7  N    8.614206  -0.213215  -0.101099  -0.247626  -0.025650   0.093571
     8  C   -0.213215   9.829904  -0.809997  -0.074407  -0.912241  -0.525114
     9  C   -0.101099  -0.809997   8.722481  -1.040389  -0.023571  -0.541108
    10  C   -0.247626  -0.074407  -1.040389   8.681644  -0.766206  -0.164488
    11  C   -0.025650  -0.912241  -0.023571  -0.766206   9.666629   0.065359
    12  C    0.093571  -0.525114  -0.541108  -0.164488   0.065359   8.306397
    13  C   -0.029293   0.153269  -0.139142  -0.498160  -0.161491  -0.117230
    14  C   -0.043244  -0.127204  -0.484329  -0.162655   0.193028   0.139545
    15  C    0.119424   0.014129  -0.224113  -0.554623  -0.570214  -0.548865
    16  O   -0.193245  -0.043259   0.135376  -0.175626  -0.690938   0.009461
    17  O   -0.164805  -0.706825  -0.184328   0.160292  -0.059177   0.115784
    18  C   -0.092647  -0.047677   0.004052  -0.000205  -0.020486  -0.002389
    19  O    0.001943   0.005235   0.000077   0.000134  -0.000892   0.000130
    20  O   -0.007242   0.008889   0.000209   0.000000   0.001060  -0.000175
    21  H    0.023067  -0.002829   0.000367   0.000710   0.006053  -0.000475
    22  H   -0.050141   0.002339   0.000060   0.000751  -0.017119   0.000767
    23  H    0.186532   0.001856  -0.024133  -0.031396   0.220850  -0.006322
    24  H   -0.157205   0.205251  -0.048881  -0.023740  -0.095692   0.027167
    25  H    0.021417  -0.094360  -0.273045  -0.005850   0.016563   0.356153
    26  H   -0.003651   0.001255   0.047330  -0.005810  -0.006233  -0.305160
    27  H   -0.005137  -0.009114  -0.006187   0.057468   0.006711   0.041281
    28  H    0.018150   0.026658  -0.005215  -0.298480  -0.121159   0.025101
    29  H    0.000967  -0.003555   0.000273   0.000108  -0.000017  -0.000182
              13         14         15         16         17         18
     1  C    0.004603  -0.003656  -0.006902   0.002167  -0.028904  -0.618119
     2  C   -0.001320   0.001412   0.005211   0.018383   0.013212  -0.345189
     3  C   -0.000078  -0.000144  -0.004893   0.005091  -0.008583  -0.111075
     4  C   -0.011173   0.013560   0.018964  -0.061320  -0.015520   0.161059
     5  C    0.040940  -0.037294   0.036528   0.380026   0.364361   0.102575
     6  C   -0.010847   0.004324  -0.003338  -0.062760  -0.121917  -0.383764
     7  N   -0.029293  -0.043244   0.119424  -0.193245  -0.164805  -0.092647
     8  C    0.153269  -0.127204   0.014129  -0.043259  -0.706825  -0.047677
     9  C   -0.139142  -0.484329  -0.224113   0.135376  -0.184328   0.004052
    10  C   -0.498160  -0.162655  -0.554623  -0.175626   0.160292  -0.000205
    11  C   -0.161491   0.193028  -0.570214  -0.690938  -0.059177  -0.020486
    12  C   -0.117230   0.139545  -0.548865   0.009461   0.115784  -0.002389
    13  C    6.773757  -0.030694   0.143467   0.007003  -0.057592  -0.000137
    14  C   -0.030694   6.721266  -0.089048  -0.063291  -0.001338   0.000059
    15  C    0.143467  -0.089048   8.342905   0.122311   0.018819  -0.000017
    16  O    0.007003  -0.063291   0.122311   9.708830   0.007018   0.002749
    17  O   -0.057592  -0.001338   0.018819   0.007018   9.761423   0.012535
    18  C   -0.000137   0.000059  -0.000017   0.002749   0.012535   6.858546
    19  O    0.000016  -0.000006  -0.000028   0.000072  -0.000440  -0.118946
    20  O   -0.000007  -0.000016   0.000167   0.000083  -0.000304  -0.004594
    21  H   -0.000073   0.000076   0.000408   0.000243   0.000053   0.071673
    22  H    0.000104  -0.000254  -0.001368   0.005523   0.000828   0.010726
    23  H   -0.002664   0.006805   0.014822  -0.124259  -0.009310  -0.021867
    24  H    0.010978  -0.003470  -0.013857   0.000954  -0.070989   0.035557
    25  H   -0.176661   0.001917   0.020961  -0.001411   0.026613  -0.000265
    26  H    0.495374  -0.217061   0.045986   0.000758  -0.002347  -0.000004
    27  H   -0.227675   0.485598  -0.296310  -0.002783   0.000481   0.000008
    28  H    0.000868  -0.153849   0.374420   0.023563  -0.001244  -0.000060
    29  H   -0.000002   0.000003   0.000003   0.000024   0.000298   0.146233
              19         20         21         22         23         24
     1  C   -0.185314   0.033899  -0.341313   0.111762  -0.088292  -0.332571
     2  C    0.102306   0.002869   0.416147  -0.354470   0.090517  -0.077709
     3  C   -0.015913  -0.002031  -0.422485   0.689530  -0.455312   0.022812
     4  C   -0.001483   0.006252   0.137051  -0.392731   0.488344  -0.063166
     5  C   -0.027435  -0.012038  -0.066056   0.156455  -0.958211  -0.450195
     6  C    0.146391  -0.010412   0.039278  -0.049114   0.180627   0.177299
     7  N    0.001943  -0.007242   0.023067  -0.050141   0.186532  -0.157205
     8  C    0.005235   0.008889  -0.002829   0.002339   0.001856   0.205251
     9  C    0.000077   0.000209   0.000367   0.000060  -0.024133  -0.048881
    10  C    0.000134   0.000000   0.000710   0.000751  -0.031396  -0.023740
    11  C   -0.000892   0.001060   0.006053  -0.017119   0.220850  -0.095692
    12  C    0.000130  -0.000175  -0.000475   0.000767  -0.006322   0.027167
    13  C    0.000016  -0.000007  -0.000073   0.000104  -0.002664   0.010978
    14  C   -0.000006  -0.000016   0.000076  -0.000254   0.006805  -0.003470
    15  C   -0.000028   0.000167   0.000408  -0.001368   0.014822  -0.013857
    16  O    0.000072   0.000083   0.000243   0.005523  -0.124259   0.000954
    17  O   -0.000440  -0.000304   0.000053   0.000828  -0.009310  -0.070989
    18  C   -0.118946  -0.004594   0.071673   0.010726  -0.021867   0.035557
    19  O    9.143555  -0.099116  -0.013515  -0.004107   0.001078   0.004587
    20  O   -0.099116   8.422734   0.002566  -0.000274   0.000330   0.000266
    21  H   -0.013515   0.002566   1.110913  -0.110020   0.009936  -0.023779
    22  H   -0.004107  -0.000274  -0.110020   0.981782  -0.121305   0.006645
    23  H    0.001078   0.000330   0.009936  -0.121305   1.389503  -0.010634
    24  H    0.004587   0.000266  -0.023779   0.006645  -0.010634   1.740939
    25  H    0.000004   0.000041   0.000017  -0.000034   0.000445  -0.001721
    26  H    0.000001   0.000003  -0.000001   0.000000  -0.000047   0.000250
    27  H    0.000000   0.000000   0.000003  -0.000003   0.000138  -0.000082
    28  H    0.000004   0.000002  -0.000024   0.000052  -0.000690   0.000216
    29  H   -0.099072   0.164728   0.002823   0.000049  -0.000260  -0.011332
              25         26         27         28         29
     1  C    0.000809   0.000069  -0.000101  -0.000128  -0.028322
     2  C    0.000152  -0.000007   0.000052  -0.000410  -0.005753
     3  C   -0.000067  -0.000025   0.000009   0.000742  -0.001666
     4  C   -0.000476  -0.000046  -0.000108   0.005055   0.000315
     5  C   -0.016771   0.002578   0.001343  -0.027387   0.007173
     6  C    0.008183  -0.000658   0.000057   0.003998  -0.030429
     7  N    0.021417  -0.003651  -0.005137   0.018150   0.000967
     8  C   -0.094360   0.001255  -0.009114   0.026658  -0.003555
     9  C   -0.273045   0.047330  -0.006187  -0.005215   0.000273
    10  C   -0.005850  -0.005810   0.057468  -0.298480   0.000108
    11  C    0.016563  -0.006233   0.006711  -0.121159  -0.000017
    12  C    0.356153  -0.305160   0.041281   0.025101  -0.000182
    13  C   -0.176661   0.495374  -0.227675   0.000868  -0.000002
    14  C    0.001917  -0.217061   0.485598  -0.153849   0.000003
    15  C    0.020961   0.045986  -0.296310   0.374420   0.000003
    16  O   -0.001411   0.000758  -0.002783   0.023563   0.000024
    17  O    0.026613  -0.002347   0.000481  -0.001244   0.000298
    18  C   -0.000265  -0.000004   0.000008  -0.000060   0.146233
    19  O    0.000004   0.000001   0.000000   0.000004  -0.099072
    20  O    0.000041   0.000003   0.000000   0.000002   0.164728
    21  H    0.000017  -0.000001   0.000003  -0.000024   0.002823
    22  H   -0.000034   0.000000  -0.000003   0.000052   0.000049
    23  H    0.000445  -0.000047   0.000138  -0.000690  -0.000260
    24  H   -0.001721   0.000250  -0.000082   0.000216  -0.011332
    25  H    0.872220  -0.025677  -0.003943   0.003593  -0.000008
    26  H   -0.025677   0.828945  -0.079376  -0.003652   0.000000
    27  H   -0.003943  -0.079376   0.844284  -0.033400   0.000000
    28  H    0.003593  -0.003652  -0.033400   0.903984  -0.000002
    29  H   -0.000008   0.000000   0.000000  -0.000002   0.588013
 Mulliken charges:
               1
     1  C    1.335725
     2  C   -0.396005
     3  C   -0.384872
     4  C   -0.481713
     5  C    0.702712
     6  C   -0.469022
     7  N    0.389917
     8  C    0.360576
     9  C    0.997597
    10  C    0.983804
    11  C    0.299035
    12  C   -0.974175
    13  C   -0.166139
    14  C   -0.150040
    15  C   -0.964950
    16  O   -1.010742
    17  O   -1.048093
    18  C    0.361671
    19  O   -0.839266
    20  O   -0.507887
    21  H    0.159186
    22  H    0.133569
    23  H    0.262920
    24  H    0.152101
    25  H    0.271202
    26  H    0.227208
    27  H    0.226790
    28  H    0.259296
    29  H    0.269593
 Sum of Mulliken charges =   0.00000
 Mulliken charges with hydrogens summed into heavy atoms:
               1
     1  C    1.335725
     2  C   -0.236819
     3  C   -0.251303
     4  C   -0.218793
     5  C    0.702712
     6  C   -0.316921
     7  N    0.389917
     8  C    0.360576
     9  C    0.997597
    10  C    0.983804
    11  C    0.299035
    12  C   -0.702972
    13  C    0.061069
    14  C    0.076749
    15  C   -0.705653
    16  O   -1.010742
    17  O   -1.048093
    18  C    0.361671
    19  O   -0.839266
    20  O   -0.238294
 Electronic spatial extent (au):  <R**2>=           6418.4764
 Charge=              0.0000 electrons
 Dipole moment (field-independent basis, Debye):
    X=             -4.7999    Y=             -0.7691    Z=              0.4172  Tot=              4.8790
 Quadrupole moment (field-independent basis, Debye-Ang):
   XX=            -99.9805   YY=           -109.4735   ZZ=           -116.1339
   XY=              2.2999   XZ=              4.0903   YZ=              6.6827
 Traceless Quadrupole moment (field-independent basis, Debye-Ang):
   XX=              8.5488   YY=             -0.9442   ZZ=             -7.6046
   XY=              2.2999   XZ=              4.0903   YZ=              6.6827
 Octapole moment (field-independent basis, Debye-Ang**2):
  XXX=           -182.2349  YYY=            -33.7535  ZZZ=             -5.5956  XYY=             41.1285
  XXY=            -39.8861  XXZ=             13.2337  XZZ=             10.8885  YZZ=             -3.2177
  YYZ=              4.5676  XYZ=             17.4452
 Hexadecapole moment (field-independent basis, Debye-Ang**3):
 XXXX=          -6708.9459 YYYY=          -1350.4650 ZZZZ=           -275.9626 XXXY=           -100.5510
 XXXZ=            193.8904 YYYX=            -82.6202 YYYZ=             55.2399 ZZZX=            -26.0297
 ZZZY=             -4.4608 XXYY=          -1094.9484 XXZZ=          -1252.0784 YYZZ=           -285.2146
 XXYZ=              3.6199 YYXZ=            -30.4706 ZZXY=            -34.2119
 N-N= 1.415844205587D+03 E-N=-5.007509899148D+03  KE= 9.280270714801D+02
 ******************************Gaussian NBO Version 3.1******************************
             N A T U R A L   A T O M I C   O R B I T A L   A N D
          N A T U R A L   B O N D   O R B I T A L   A N A L Y S I S
 ******************************Gaussian NBO Version 3.1******************************
       /RESON  / : Allow strongly delocalized NBO set

 Analyzing the SCF density

 Job title: CYH-220-A_eq00001_2                                             

 Storage needed:   3815015 in NPA,   5084784 in NBO (********** available)
 GSVD:  LWork=      171975 too small for GESVD, short by     2017682 words or     2017682 for optimal perf.


 NATURAL POPULATIONS:  Natural atomic orbital occupancies 
                                                          
   NAO  Atom  No  lang   Type(AO)    Occupancy      Energy
 ----------------------------------------------------------
     1    C    1  S      Cor( 1S)     1.99898     -10.42106
     2    C    1  S      Val( 2S)     0.93025      -0.19385
     3    C    1  S      Ryd( 3S)     0.00130       1.79184
     4    C    1  S      Ryd( 5S)     0.00008       2.67057
     5    C    1  S      Ryd( 4S)     0.00003       2.51958
     6    C    1  px     Val( 2p)     1.07067      -0.09077
     7    C    1  px     Ryd( 4p)     0.00531       2.02832
     8    C    1  px     Ryd( 5p)     0.00006       2.42607
     9    C    1  px     Ryd( 3p)     0.00004       0.88035
    10    C    1  py     Val( 2p)     1.07573      -0.09951
    11    C    1  py     Ryd( 4p)     0.00568       1.91585
    12    C    1  py     Ryd( 5p)     0.00008       2.44781
    13    C    1  py     Ryd( 3p)     0.00003       1.03167
    14    C    1  pz     Val( 2p)     1.05599      -0.13189
    15    C    1  pz     Ryd( 4p)     0.00149       1.03220
    16    C    1  pz     Ryd( 5p)     0.00006       1.99743
    17    C    1  pz     Ryd( 3p)     0.00002       0.84177
    18    C    1  dxy    Ryd( 3d)     0.00218       3.24576
    19    C    1  dxy    Ryd( 5d)     0.00019       3.86432
    20    C    1  dxy    Ryd( 4d)     0.00006       3.67080
    21    C    1  dxz    Ryd( 3d)     0.00039       1.58348
    22    C    1  dxz    Ryd( 5d)     0.00014       3.02829
    23    C    1  dxz    Ryd( 4d)     0.00006       2.66571
    24    C    1  dyz    Ryd( 3d)     0.00045       1.64208
    25    C    1  dyz    Ryd( 5d)     0.00012       3.19875
    26    C    1  dyz    Ryd( 4d)     0.00005       3.11401
    27    C    1  dx2y2  Ryd( 3d)     0.00076       2.75966
    28    C    1  dx2y2  Ryd( 4d)     0.00039       3.61985
    29    C    1  dx2y2  Ryd( 5d)     0.00008       4.59901
    30    C    1  dz2    Ryd( 3d)     0.00080       1.61399
    31    C    1  dz2    Ryd( 4d)     0.00013       3.49445
    32    C    1  dz2    Ryd( 5d)     0.00006       3.70984
    33    C    1  f(0)   Ryd( 4f)     0.00042       1.58046
    34    C    1  f(0)   Ryd( 5f)     0.00020       3.64152
    35    C    1  f(C1)  Ryd( 4f)     0.00044       1.57137
    36    C    1  f(C1)  Ryd( 5f)     0.00017       3.69063
    37    C    1  f(S1)  Ryd( 4f)     0.00039       1.54673
    38    C    1  f(S1)  Ryd( 5f)     0.00019       3.66209
    39    C    1  f(C2)  Ryd( 4f)     0.00086       1.50827
    40    C    1  f(C2)  Ryd( 5f)     0.00007       3.75783
    41    C    1  f(S2)  Ryd( 4f)     0.00060       1.73517
    42    C    1  f(S2)  Ryd( 5f)     0.00011       3.75762
    43    C    1  f(C3)  Ryd( 4f)     0.00139       2.12034
    44    C    1  f(C3)  Ryd( 5f)     0.00010       4.22901
    45    C    1  f(S3)  Ryd( 4f)     0.00121       2.33079
    46    C    1  f(S3)  Ryd( 5f)     0.00012       4.25201
 
    47    C    2  S      Cor( 1S)     1.99920     -10.40193
    48    C    2  S      Val( 2S)     0.96485      -0.21234
    49    C    2  S      Ryd( 3S)     0.00112       1.75712
    50    C    2  S      Ryd( 5S)     0.00011       2.89408
    51    C    2  S      Ryd( 4S)     0.00002       1.80764
    52    C    2  px     Val( 2p)     1.18042      -0.08205
    53    C    2  px     Ryd( 4p)     0.00448       1.73861
    54    C    2  px     Ryd( 3p)     0.00005       1.68292
    55    C    2  px     Ryd( 5p)     0.00005       1.80566
    56    C    2  py     Val( 2p)     1.02995      -0.07260
    57    C    2  py     Ryd( 5p)     0.00271       1.60344
    58    C    2  py     Ryd( 3p)     0.00004       1.33584
    59    C    2  py     Ryd( 4p)     0.00002       1.41863
    60    C    2  pz     Val( 2p)     0.96828      -0.11704
    61    C    2  pz     Ryd( 3p)     0.00098       1.09038
    62    C    2  pz     Ryd( 4p)     0.00003       1.18097
    63    C    2  pz     Ryd( 5p)     0.00003       1.24817
    64    C    2  dxy    Ryd( 4d)     0.00133       3.11907
    65    C    2  dxy    Ryd( 5d)     0.00025       3.87053
    66    C    2  dxy    Ryd( 3d)     0.00006       2.10402
    67    C    2  dxz    Ryd( 4d)     0.00040       1.75138
    68    C    2  dxz    Ryd( 5d)     0.00006       3.10766
    69    C    2  dxz    Ryd( 3d)     0.00004       1.68584
    70    C    2  dyz    Ryd( 3d)     0.00075       1.71703
    71    C    2  dyz    Ryd( 5d)     0.00007       3.25301
    72    C    2  dyz    Ryd( 4d)     0.00004       2.67051
    73    C    2  dx2y2  Ryd( 3d)     0.00155       2.45506
    74    C    2  dx2y2  Ryd( 5d)     0.00012       3.62526
    75    C    2  dx2y2  Ryd( 4d)     0.00006       2.56764
    76    C    2  dz2    Ryd( 3d)     0.00070       1.71644
    77    C    2  dz2    Ryd( 5d)     0.00006       3.46944
    78    C    2  dz2    Ryd( 4d)     0.00006       3.03248
    79    C    2  f(0)   Ryd( 5f)     0.00014       3.61223
    80    C    2  f(0)   Ryd( 4f)     0.00003       2.62305
    81    C    2  f(C1)  Ryd( 5f)     0.00013       3.69692
    82    C    2  f(C1)  Ryd( 4f)     0.00003       2.81090
    83    C    2  f(S1)  Ryd( 5f)     0.00011       3.59670
    84    C    2  f(S1)  Ryd( 4f)     0.00002       2.48117
    85    C    2  f(C2)  Ryd( 5f)     0.00007       3.72871
    86    C    2  f(C2)  Ryd( 4f)     0.00003       2.60935
    87    C    2  f(S2)  Ryd( 5f)     0.00008       3.69472
    88    C    2  f(S2)  Ryd( 4f)     0.00003       3.10883
    89    C    2  f(C3)  Ryd( 4f)     0.00010       4.08743
    90    C    2  f(C3)  Ryd( 5f)     0.00006       4.47375
    91    C    2  f(S3)  Ryd( 4f)     0.00008       4.14035
    92    C    2  f(S3)  Ryd( 5f)     0.00008       4.18683
 
    93    C    3  S      Cor( 1S)     1.99927     -10.40370
    94    C    3  S      Val( 2S)     0.96580      -0.22098
    95    C    3  S      Ryd( 3S)     0.00112       1.74010
    96    C    3  S      Ryd( 5S)     0.00005       2.79181
    97    C    3  S      Ryd( 4S)     0.00002       1.77068
    98    C    3  px     Val( 2p)     1.05498      -0.07001
    99    C    3  px     Ryd( 5p)     0.00319       1.65188
   100    C    3  px     Ryd( 3p)     0.00007       1.23085
   101    C    3  px     Ryd( 4p)     0.00001       1.25308
   102    C    3  py     Val( 2p)     1.14503      -0.08497
   103    C    3  py     Ryd( 4p)     0.00395       1.57749
   104    C    3  py     Ryd( 5p)     0.00004       1.64485
   105    C    3  py     Ryd( 3p)     0.00003       1.46522
   106    C    3  pz     Val( 2p)     1.01453      -0.12260
   107    C    3  pz     Ryd( 3p)     0.00112       1.10173
   108    C    3  pz     Ryd( 5p)     0.00002       1.31537
   109    C    3  pz     Ryd( 4p)     0.00003       1.10654
   110    C    3  dxy    Ryd( 4d)     0.00161       2.91163
   111    C    3  dxy    Ryd( 5d)     0.00021       3.71158
   112    C    3  dxy    Ryd( 3d)     0.00005       2.10003
   113    C    3  dxz    Ryd( 3d)     0.00061       1.63308
   114    C    3  dxz    Ryd( 5d)     0.00003       3.02545
   115    C    3  dxz    Ryd( 4d)     0.00002       1.84043
   116    C    3  dyz    Ryd( 3d)     0.00048       1.62002
   117    C    3  dyz    Ryd( 5d)     0.00005       3.29673
   118    C    3  dyz    Ryd( 4d)     0.00005       2.04103
   119    C    3  dx2y2  Ryd( 4d)     0.00184       2.48512
   120    C    3  dx2y2  Ryd( 5d)     0.00015       3.67589
   121    C    3  dx2y2  Ryd( 3d)     0.00005       2.46242
   122    C    3  dz2    Ryd( 3d)     0.00065       1.64167
   123    C    3  dz2    Ryd( 5d)     0.00008       3.64915
   124    C    3  dz2    Ryd( 4d)     0.00006       2.76338
   125    C    3  f(0)   Ryd( 5f)     0.00013       3.59060
   126    C    3  f(0)   Ryd( 4f)     0.00002       2.49891
   127    C    3  f(C1)  Ryd( 5f)     0.00017       3.69274
   128    C    3  f(C1)  Ryd( 4f)     0.00001       2.67124
   129    C    3  f(S1)  Ryd( 5f)     0.00008       3.56709
   130    C    3  f(S1)  Ryd( 4f)     0.00003       2.38356
   131    C    3  f(C2)  Ryd( 5f)     0.00005       3.72749
   132    C    3  f(C2)  Ryd( 4f)     0.00003       2.49974
   133    C    3  f(S2)  Ryd( 5f)     0.00007       3.69319
   134    C    3  f(S2)  Ryd( 4f)     0.00001       2.95824
   135    C    3  f(C3)  Ryd( 4f)     0.00011       4.10019
   136    C    3  f(C3)  Ryd( 5f)     0.00005       4.33907
[...]
 00033565,0.00005276,0.00009534,-0.00000831,-0.00001600,0.00006308,0.00
 001004,-0.00008769,-0.00000874,0.00015340,0.00025505,-0.00244072,0.002
 37697,0.00037307,0.10342944,0.00001547,-0.00093118,0.00081204,-0.00339
 571,0.00182709,0.00380595,0.00648579,0.01029362,0.01140278,-0.06325641
 ,-0.10005792,-0.08910946,-0.01159107,-0.00417312,-0.02127107,-0.005543
 90,-0.00150335,0.00174158,0.00357417,0.00027576,-0.00137327,0.00003982
 ,-0.00081504,0.00020031,-0.00006130,-0.00004409,-0.00009600,-0.0002590
 9,-0.00000045,-0.00011953,-0.00089278,-0.00016148,0.00093246,-0.000003
 67,-0.00003136,0.00003654,0.00001019,-0.00001106,-0.00003692,0.0000084
 1,0.00003427,-0.00000591,-0.00000149,0.00005777,0.00006093,0.00081892,
 0.00011940,-0.00057970,0.00006254,0.00028278,0.00024786,0.00040570,-0.
 00048112,0.00011771,0.00002133,0.00015416,-0.00014913,-0.00001738,0.00
 006769,-0.00011850,0.00041784,0.00029153,0.00054103,0.00224070,-0.0010
 4222,-0.00093757,0.07129556,0.09600022,0.00080404,0.00085629,0.0000890
 5,0.00060923,0.00337117,-0.00359737,-0.01315622,-0.01215825,-0.0156828
 3,-0.11074807,-0.09043201,-0.24222073,0.00292003,0.00293840,0.00654568
 ,0.00056624,0.00152099,0.00100031,0.00020429,-0.00121112,0.00010471,-0
 .00019005,0.00033918,0.00019404,0.00004636,0.00001377,-0.00002977,-0.0
 0013246,0.00002200,-0.00005419,0.00073641,0.00185692,0.00009630,-0.000
 01474,-0.00003715,0.00008000,0.00000203,-0.00004491,-0.00004304,0.0000
 1216,0.00003582,-0.00001754,-0.00003006,-0.00003045,0.00002751,0.00191
 250,-0.00078106,-0.00289597,0.00008945,-0.00025289,-0.00018969,0.00001
 607,-0.00005492,-0.00041162,-0.00009133,-0.00014732,0.00015089,-0.0000
 1720,-0.00002762,0.00005842,-0.00056982,-0.00063969,-0.00064082,0.0006
 2036,-0.00026353,0.00091781,0.11620539,0.09493025,0.25620637,0.0013522
 3,-0.00327084,0.00000800,0.00493874,-0.00229047,-0.00010047,-0.0004036
 1,0.00086655,-0.00041739,0.00344510,-0.00329711,-0.00302228,-0.0022618
 9,-0.01118320,0.00248767,-0.14853023,-0.14699739,0.01807202,-0.0026755
 0,0.00354936,0.00094470,0.00013664,-0.00235402,-0.00256515,0.00006125,
 0.00028730,0.00007061,0.00004456,0.00004579,0.00003868,-0.00000665,-0.
 00073550,-0.00018243,0.00000811,0.00000323,0.00003483,-0.00000453,-0.0
 0001518,-0.00005312,-0.00001336,0.00008208,0.00001976,-0.00001088,-0.0
 0004634,0.00010355,-0.00003603,0.00046480,0.00005291,0.00022226,0.0004
 7520,0.00193510,-0.00261954,0.00217693,0.00079994,0.00039585,-0.000398
 48,0.00004036,-0.00066180,-0.00069897,-0.00203255,0.00021181,-0.000204
 26,-0.00011961,-0.00060001,0.00039138,0.00011696,-0.00028048,-0.000384
 58,0.00020139,0.14724584,-0.00641489,-0.00499005,0.00079462,-0.0021893
 3,0.00290767,0.00220446,0.00067844,0.00007015,-0.00033547,-0.00297879,
 0.00228314,-0.00109895,-0.00654317,-0.00410902,0.00304405,-0.14995922,
 -0.24120394,0.02677274,0.00262966,-0.00202353,0.00058859,-0.00001897,0
 .00203260,0.00078836,-0.00028805,-0.00013115,0.00003864,-0.00003841,-0
 .00008224,0.00008191,0.00001117,0.00005987,-0.00050818,-0.00001600,0.0
 0007028,-0.00004051,0.00000162,0.00002143,0.00007312,0.00000005,-0.000
 09725,0.00001220,0.00001160,0.00002538,-0.00012656,0.00009868,-0.00004
 550,0.00004876,0.00116530,-0.00262198,0.00125091,0.00137831,-0.0022178
 5,-0.00008025,-0.00018685,0.00041612,-0.00005482,-0.00072451,-0.000282
 60,-0.00221070,-0.00037701,-0.00009558,-0.00007687,0.00035979,-0.00034
 228,-0.00008506,-0.00014292,-0.00018550,0.00021432,0.16327820,0.250278
 89,0.01672975,0.02227538,0.00267545,-0.00054635,0.00241237,-0.00524807
 ,-0.00014762,-0.00013343,-0.00113159,-0.00312388,-0.00113334,-0.003811
 62,-0.01532496,-0.02001661,0.00745676,0.01747066,0.02702675,-0.0616958
 9,0.00153702,0.00048227,0.00239246,-0.00080482,-0.00099370,-0.00239709
 ,-0.00010577,0.00003407,0.00002956,-0.00008297,-0.00005047,-0.00000489
 ,0.00025404,-0.00083806,-0.00070309,0.00002125,0.00007061,0.00004267,0
 .00000088,0.00000298,-0.00001694,0.00000014,0.00003611,0.00002411,-0.0
 0000338,-0.00003488,0.00004705,0.00001647,0.00066104,0.00009444,-0.000
 17572,0.00166079,-0.00002086,0.00276330,0.00212230,0.00047610,-0.00065
 848,-0.00079804,0.00078150,-0.00155728,-0.00152428,-0.00165616,0.00087
 253,0.00124425,0.00013242,0.00014989,-0.00008776,0.00007571,-0.0007272
 5,-0.00101390,0.00031845,-0.01636447,-0.03110700,0.06196015,-0.0000291
 2,-0.00001344,0.00000720,0.00001343,0.00001052,0.00000758,-0.00001167,
 0.00001819,-0.00000735,-0.00000859,0.00000884,-0.00002233,0.00014533,0
 .00000819,0.00008224,-0.00000428,0.00000487,-0.00000252,0.00022767,0.0
 0012971,0.00002951,-0.00435490,-0.00018342,-0.00075859,0.00393491,-0.0
 0219389,-0.00133874,0.00784760,-0.00038444,0.00145496,0.00060666,-0.00
 010242,-0.00011745,-0.04250244,0.01832686,0.01074853,0.00403330,0.0041
 6689,0.00146546,0.00732040,-0.00001404,0.00187944,-0.00094036,-0.00008
 944,-0.00000574,-0.00040621,-0.00005952,0.00000406,0.00023243,0.000179
 30,0.00002310,0.00004266,0.00004387,0.00000370,-0.00001542,-0.00001404
 ,0.00000719,-0.00003664,-0.00003258,0.00000181,0.00000367,-0.00000279,
 -0.00000028,0.00000031,-0.00000108,-0.00000190,0.00001037,-0.00001394,
 -0.00000337,0.00002258,-0.00000208,-0.00000517,0.02923431,0.00000749,0
 .00000965,0.00002046,0.00000548,0.00000377,0.00000434,0.00000124,0.000
 00698,-0.00000924,-0.00002125,-0.00002708,0.00000853,0.00001173,0.0000
 5839,-0.00003630,-0.00001899,-0.00002133,0.00001384,-0.00007660,0.0005
 1523,0.00050502,0.00028213,-0.00099651,-0.00208633,0.00191914,-0.01894
 637,-0.01148856,-0.00046452,-0.00157318,0.00394029,0.00027176,-0.00079
 412,-0.00177507,0.01841291,-0.29846874,-0.10618070,-0.00014967,0.00263
 345,0.00110874,0.00003910,0.00160350,0.00020652,-0.00009842,0.00028100
 ,0.00055761,-0.00009313,-0.00041024,0.00060403,-0.00015825,0.00139172,
 0.00092197,-0.00001812,-0.00002736,0.00000979,0.00000502,0.00000958,-0
 .00000929,0.00001093,0.00001871,-0.00000478,0.00000156,0.00000100,0.00
 000073,0.00000076,-0.00000088,0.00000066,0.00001224,0.00000280,-0.0000
 0350,0.00001140,-0.00001256,0.00001431,-0.01986556,0.31425989,-0.00000
 642,-0.00000950,-0.00001286,-0.00000773,-0.00000827,0.00000755,-0.0000
 0635,-0.00000654,0.00000776,0.00001244,0.00001687,0.00002673,0.0000264
 4,-0.00004789,-0.00009915,0.00002792,0.00003031,0.00001111,0.00008889,
 -0.00093305,-0.00022832,-0.00082901,0.00089844,0.00103013,-0.00160967,
 0.01653899,0.01352078,0.00144091,0.00335246,-0.00192600,-0.00016841,0.
 00083211,0.00161190,0.01078488,-0.10565964,-0.10683346,0.00173240,-0.0
 2796790,-0.00547919,0.00188709,0.00034480,-0.00511316,0.00000666,0.000
 59633,-0.00105305,0.00003663,0.00035710,-0.00061268,0.00006207,-0.0013
 7108,-0.00002818,0.00000711,0.00003232,-0.00005375,-0.00000011,-0.0000
 1548,0.00004433,-0.00000267,-0.00002566,0.00001549,-0.00000250,-0.0000
 0136,-0.00000007,-0.00000117,-0.00000349,0.00000333,-0.00000602,-0.000
 00266,0.00000220,-0.00002120,0.00000915,-0.00001796,-0.01252773,0.1139
 3799,0.10446971,0.00001418,-0.00000098,-0.00000552,-0.00000826,-0.0000
 0019,-0.00001003,-0.00000594,-0.00002157,0.00000289,0.00000466,-0.0000
 0737,0.00005102,-0.00020364,-0.00003572,-0.00006171,0.00001042,0.00000
 753,-0.00000866,0.00005652,-0.00006303,0.00010192,0.00032376,-0.000188
 47,-0.00011728,0.00717468,0.00025416,0.00199073,-0.00096763,0.00016580
 ,-0.00003052,-0.00099507,0.00003906,-0.00007994,0.00407633,-0.00382879
 ,0.00262508,-0.04299389,-0.01808000,0.01650054,0.00459129,0.00199145,-
 0.00121490,0.00720746,0.00058447,0.00112576,0.00012363,-0.00004156,-0.
 00000224,0.00004472,0.00004983,0.00006753,0.00001687,0.00001484,-0.000
 00579,-0.00000708,-0.00000512,0.00000583,-0.00001260,-0.00001040,0.000
 00221,0.00000116,-0.00000092,0.00000126,0.00000014,-0.00000251,0.00000
 474,0.00000104,0.00000387,0.00000222,-0.00000528,0.00000738,-0.0000046
 4,-0.00401090,-0.00000384,-0.00077245,0.02981194,0.00000790,0.00000124
 ,0.00000532,-0.00000332,-0.00000224,0.00000217,0.00000345,0.00000225,0
 .00000301,-0.00000079,-0.00000369,-0.00000661,0.00000399,0.00005733,-0
 .00001810,-0.00000068,-0.00000189,0.00000828,-0.00000326,0.00003864,-0
 .00004522,0.00004783,0.00040400,-0.00035304,0.00027409,0.00143057,-0.0
 0142154,0.00019045,-0.00009954,-0.00132975,-0.00000175,-0.00015821,-0.
 00005095,0.00061555,0.00743775,-0.00431934,-0.01805289,-0.24168472,0.1
 3612781,-0.00253843,-0.01750957,0.01874413,0.00055812,-0.00408714,-0.0
 0302370,-0.00001591,0.00004717,0.00009737,-0.00001522,0.00000044,0.000
 12255,-0.00001037,-0.00000583,-0.00002563,0.00000362,-0.00000027,0.000
 01834,0.00000592,0.00000424,0.00000619,0.00000008,-0.00000049,0.000000
 28,-0.00000009,-0.00000046,-0.00000021,0.00000510,0.00000207,-0.000003
 31,-0.00000406,0.00000150,-0.00000398,-0.00012244,0.00049007,0.0005096
 2,0.01919933,0.25347562,0.00000280,-0.00001201,-0.00001605,0.00000453,
 0.00001207,-0.00001884,0.00001323,0.00000173,-0.00000281,-0.00001100,0
 .00000929,-0.00007303,-0.00004613,0.00010157,0.00023446,0.00000091,-0.
 00000340,-0.00001949,0.00007108,0.00053032,-0.00060321,-0.00012122,0.0
 0113143,0.00090069,0.00197794,-0.00124124,-0.00577835,-0.00003568,-0.0
 0118711,-0.00062985,-0.00007002,-0.00018436,-0.00047175,0.00232513,0.0
 2556811,-0.01301989,0.01649897,0.13633578,-0.16091787,-0.00088899,-0.0
 1177363,0.01126674,0.00112031,-0.00307698,0.00004913,-0.00000097,0.000
 18992,0.00011206,0.00006572,-0.00025513,-0.00034827,0.00004655,0.00004
 256,0.00006658,-0.00001612,-0.00000902,-0.00004643,-0.00002924,-0.0000
 3205,-0.00001792,0.00000008,0.00000217,0.00000098,0.00000144,0.0000053
 1,-0.00000742,-0.00000329,-0.00000218,0.00000228,0.00000616,0.00000750
 ,0.00001419,-0.00075856,-0.00032913,0.00102289,-0.01935969,-0.14572676
 ,0.16727725,-0.00000148,-0.00001484,-0.00001730,-0.00000802,-0.0000057
 6,0.00001060,0.00001525,-0.00000441,0.00000359,0.00000272,-0.00000486,
 0.00001918,-0.00019507,0.00000483,-0.00005877,0.00000893,0.00002083,-0
 .00002273,0.00004670,0.00000727,0.00008657,-0.00098842,-0.00002456,-0.
 00009798,-0.00092705,-0.00000508,-0.00028681,0.00731036,-0.00038912,0.
 00113672,0.00030601,0.00010066,0.00000768,0.00723425,0.00046106,0.0009
 6524,0.00411742,-0.00015718,0.00208766,-0.04741351,0.00414224,0.044013
 26,0.00407667,0.00053382,0.00222973,0.00005048,-0.00003764,0.00002476,
 0.00012110,-0.00000132,0.00001844,0.00000876,0.00000584,-0.00000964,-0
 .00000335,-0.00000122,0.00000667,-0.00000621,-0.00000307,0.00000329,-0
 .00000125,0.00000142,-0.00000102,0.00000233,-0.00000322,0.00000116,-0.
 00000352,0.00000372,0.00000467,0.00000096,0.00000480,-0.00000003,-0.00
 011383,-0.00002684,0.00005584,-0.00415784,-0.00001607,-0.00072835,0.03
 454364,0.00001862,0.00000855,0.00001421,-0.00000363,-0.00000698,0.0000
 1087,0.00001104,-0.00000108,0.00000272,-0.00000046,-0.00000650,0.00000
 464,0.00001435,0.00019794,-0.00002634,-0.00002114,-0.00003871,0.000042
 20,-0.00011346,-0.00007469,0.00062511,-0.00000959,-0.00043765,0.000067
 80,-0.00002294,-0.00164688,0.00023213,-0.00042911,-0.00398518,0.003678
 57,-0.00009876,0.00108284,0.00052143,0.00045118,-0.00501815,-0.0022175
 3,0.00437087,0.00163920,-0.02923363,0.00411158,-0.06204792,-0.02688543
 ,-0.00389142,0.00687276,0.02610269,0.00000747,-0.00026438,-0.00001710,
 -0.00000795,0.00022630,0.00002683,-0.00002525,-0.00002582,-0.00002785,
 0.00000849,0.00000569,0.00002206,0.00001369,0.00001685,0.00000721,-0.0
 0000083,0.00000044,-0.00000009,-0.00000186,-0.00000187,0.00000321,0.00
 000269,0.00000755,-0.00000147,-0.00000125,-0.00000232,-0.00000016,0.00
 019884,0.00003916,-0.00135072,-0.00012343,0.00094461,0.00048144,-0.004
 51627,0.06159181,-0.00001855,-0.00001330,-0.00001928,0.00000611,0.0000
 1055,-0.00001017,-0.00000693,-0.00000189,-0.00000751,0.00000237,0.0000
 1054,-0.00001003,-0.00004947,-0.00014793,0.00008923,0.00001711,0.00002
 750,-0.00004308,0.00008796,0.00005697,-0.00049020,-0.00012781,0.000210
 01,-0.00019636,-0.00027579,0.00007668,0.00088904,0.00115132,0.00350888
 ,-0.00048089,0.00002810,-0.00097207,0.00025148,0.00097055,-0.00216476,
 0.00095777,0.00175224,0.00130976,-0.00744850,0.04400370,-0.02713500,-0
 .33566264,0.00254353,-0.00377295,-0.01246568,0.00001985,0.00036437,-0.
 00009364,0.00002818,-0.00006858,-0.00006489,0.00003513,0.00002838,0.00
 006039,-0.00001257,-0.00000363,-0.00004500,-0.00002048,-0.00001807,-0.
 00001536,0.00000131,0.00000011,-0.00000041,0.00000208,0.00000272,-0.00
 000380,-0.00000943,-0.00000825,0.00000549,0.00000665,0.00000066,0.0000
 0792,0.00004081,0.00017202,-0.00038367,-0.00071830,-0.00024210,0.00059
 657,-0.04876195,0.02866286,0.35399230,-0.00001822,0.00000264,0.0000004
 0,0.00001149,0.00001288,0.00000087,-0.00002462,0.00000324,-0.00002380,
 0.00000557,0.00000499,0.00001983,0.00015422,0.00002221,-0.00001121,-0.
 00000827,0.00000002,0.00002330,0.00023840,-0.00018345,-0.00000699,0.00
 059155,0.00039349,-0.00004025,0.00776002,-0.00004640,0.00195574,0.0034
 5934,0.00447909,0.00147536,-0.00435870,0.00035819,-0.00075840,-0.00093
 874,-0.00011921,0.00001432,0.00740374,-0.00042405,0.00131355,0.0044822
 0,-0.00237105,-0.00107846,-0.04241953,0.01782780,0.01028279,0.00025680
 ,-0.00029011,-0.00010037,-0.00041746,-0.00006256,0.00009127,0.00002662
 ,0.00002371,0.00001621,-0.00001026,-0.00000606,-0.00000587,-0.00002101
 ,-0.00001670,-0.00000223,0.00000404,-0.00000373,-0.00000052,0.00000017
 ,-0.00000113,0.00000358,0.00000958,-0.00000984,0.00000698,0.00000871,-
 0.00001103,-0.00000725,-0.00125100,0.00000146,-0.00020077,-0.00009428,
 -0.00012775,-0.00007261,-0.00402835,0.00006062,-0.00070175,0.02917279,
 -0.00001074,-0.00001055,-0.00001214,0.00000377,0.00000794,-0.00000560,
 -0.00000234,-0.00000445,-0.00000586,0.00001215,0.00001555,-0.00000387,
 -0.00001291,-0.00007224,0.00007519,0.00000194,0.00001391,-0.00002480,0
 .00006632,-0.00010739,-0.00036386,-0.00001245,0.00003945,0.00006585,0.
 00003556,0.00182129,0.00027935,0.00030407,0.00117073,-0.00185761,-0.00
 010735,-0.00041440,0.00038984,-0.00012631,0.00012742,0.00075024,-0.000
 41195,-0.00193778,0.00351305,0.00190162,-0.01535957,-0.01144580,0.0177
 8876,-0.30238887,-0.10199828,0.00007668,0.00039176,-0.00046768,-0.0000
 0167,-0.00003568,0.00001495,0.00002588,0.00002328,0.00003546,-0.000008
 54,-0.00000490,-0.00002443,-0.00001561,-0.00001630,-0.00000841,-0.0000
 0012,0.00000063,-0.00000008,-0.00000078,0.00000247,-0.00000103,-0.0000
 1043,-0.00000125,-0.00000184,0.00000322,0.00000179,0.00000281,-0.00000
 570,-0.00004594,-0.00005608,0.00009562,-0.00078223,-0.00059507,-0.0000
 7442,0.00092756,0.00010229,-0.01951768,0.31663440,0.00001004,0.0000113
 0,0.00003414,0.00000433,-0.00000086,0.00000421,0.00001036,0.00002802,0
 .00000165,-0.00002764,-0.00001524,-0.00003826,0.00003078,0.00008878,0.
 00002440,-0.00002213,-0.00002619,-0.00001820,-0.00004027,0.00106847,0.
 00038583,-0.00000183,-0.00253908,0.00079500,0.00196585,0.00091187,-0.0
 0520711,0.00176704,-0.02995248,-0.00626109,-0.00070826,-0.00259571,0.0
 0048206,-0.00001145,0.00067934,-0.00090353,0.00134123,0.00340834,-0.00
 168996,-0.00135389,0.01757274,0.01219155,0.01022600,-0.10242941,-0.102
 93463,-0.00013763,0.00182301,0.00094396,0.00007585,0.00026077,-0.00098
 015,-0.00003272,-0.00003753,-0.00004148,0.00000926,0.00000984,0.000025
 56,0.00001584,0.00002688,0.00000843,0.00000293,0.00000082,0.00000068,0
 .00000211,-0.00000084,-0.00000389,0.00003306,0.00000299,-0.00001490,0.
 00001275,-0.00000673,0.00000704,-0.00020063,-0.00010708,0.00007433,-0.
 00008827,0.00092684,0.00042475,-0.00068880,-0.00074503,0.00058779,-0.0
 1219278,0.11164182,0.10210397,0.00120218,-0.00470324,0.00208636,0.0000
 2807,-0.00037852,-0.00099756,-0.00038427,-0.00014275,0.00035019,0.0001
 0354,0.00002564,0.00012089,0.00023046,0.00019672,-0.00029660,0.0001223
 4,0.00022718,0.00078644,-0.00004185,-0.00003284,0.00029404,0.00005764,
 0.00010752,-0.00019253,-0.00001854,-0.00002155,0.00005847,-0.00000553,
 -0.00001724,0.00005954,0.00005867,-0.00015932,-0.00028232,-0.00000727,
 0.00002476,0.00000702,-0.00000620,0.00000219,0.00001326,-0.00000459,-0
 .00000861,0.00001200,-0.00000166,-0.00002090,-0.00000786,-0.00004686,0
 .00008737,0.00010474,-0.00003131,-0.00002677,0.00014812,-0.01563505,-0
 .01811911,-0.03083150,0.00046742,0.00763900,0.00161219,-0.09222185,-0.
 06588740,-0.14122625,0.00003182,-0.00018810,-0.00001671,-0.00006889,0.
 00001925,-0.00005967,-0.00000036,0.00002715,-0.00000653,0.00001514,0.0
 0026623,-0.00017589,0.00000974,0.00000083,-0.00000707,0.00000362,-0.00
 000239,0.00000703,0.00000235,-0.00000212,0.00000603,0.00000519,0.00000
 341,-0.00000111,0.10613605,-0.00446148,-0.00199086,0.00348075,-0.00057
 660,0.00009409,-0.00110913,-0.00004509,-0.00052640,0.00022842,0.000045
 74,0.00001727,0.00020954,0.00016995,0.00042418,-0.00035894,0.00035115,
 0.00003775,0.00090794,-0.00002684,-0.00024669,0.00029054,-0.00000191,0
 .00051017,-0.00005296,-0.00001559,-0.00004284,0.00004598,-0.00000707,-
 0.00002259,0.00008141,0.00001387,-0.00002181,-0.00025360,-0.00000660,0
 .00004282,0.00000892,-0.00000378,-0.00000463,0.00002053,-0.00000188,-0
 .00002113,0.00000964,0.00000604,-0.00002264,-0.00002481,-0.00001511,-0
 .00003023,0.00011278,0.00002569,-0.00028769,-0.00003049,-0.02451916,-0
 .01766711,-0.04103406,0.00745828,0.00321200,0.00212830,-0.05956593,-0.
 07023608,-0.09248421,-0.00018408,-0.00005562,0.00001599,0.00000070,-0.
 00004945,-0.00009357,0.00002481,0.00002241,-0.00000811,0.00024620,0.00
 027454,-0.00031043,0.00000474,-0.00000058,0.00000285,0.00000056,-0.000
 00122,0.00000887,-0.00000063,-0.00000310,0.00000422,0.00000040,0.00000
 339,-0.00000566,0.08108362,0.08659201,0.00107913,0.00217697,0.00091127
 ,-0.00002010,0.00006783,0.00022234,0.00011773,-0.00000699,0.00026163,0
 .00006011,0.00010134,-0.00009699,-0.00007766,-0.00004142,-0.00002877,0
 .00017488,0.00015025,0.00008082,-0.00000757,0.00001110,0.00012400,0.00
 000061,-0.00001582,-0.00011458,-0.00000394,-0.00000399,0.00003129,-0.0
 0000001,-0.00001270,0.00002065,0.00000512,-0.00006213,-0.00013918,0.00
 000124,0.00000991,0.00000593,0.00000199,0.00000334,0.00000077,0.000000
 03,0.00000011,0.00000272,0.00000155,-0.00001340,0.00000043,-0.00000515
 ,0.00003996,0.00005712,0.00002949,0.00003164,0.00009057,-0.00227908,-0
 .00472434,0.01225243,0.00248428,0.00325521,-0.00618346,-0.16989304,-0.
 12895791,-0.40374643,-0.00004837,-0.00003143,0.00002801,0.00003133,0.0
 0001800,0.00001531,-0.00000487,-0.00000839,-0.00000105,-0.00007336,-0.
 00019886,0.00016816,-0.00000523,0.00000311,-0.00000673,-0.00000178,-0.
 00000168,0.00000259,-0.00000169,-0.00000062,0.00000313,-0.00000093,0.0
 0000159,-0.00000214,0.16843529,0.12820931,0.39604018\\0.00000008,0.000
 00066,0.00000038,0.00000062,0.00000035,0.00000037,0.00000078,0.0000000
 2,0.00000045,0.00000062,-0.00000008,0.00000048,0.,0.00000022,0.0000001
 3,0.00000003,0.00000047,-0.00000044,0.00000087,-0.00000034,-0.00000020
 ,-0.00000065,-0.00000025,-0.00000004,-0.00000053,-0.00000038,-0.000000
 30,-0.00000007,-0.00000037,0.00000006,0.00000016,-0.00000018,0.0000003
 3,-0.00000078,-0.00000043,-0.00000054,-0.00000072,-0.00000061,-0.00000
 035,-0.00000030,-0.00000083,-0.00000018,0.00000015,-0.00000065,-0.0000
 0005,0.00000070,-0.00000033,0.00000045,-0.00000068,-0.00000012,-0.0000
 0030,-0.00000050,0.00000039,0.00000025,0.00000020,0.00000133,0.0000000
 4,0.00000014,0.00000190,-0.00000041,0.00000074,0.00000061,0.00000041,0
 .00000106,-0.00000022,0.00000048,0.00000075,-0.00000061,0.00000035,-0.
 00000016,0.00000069,-0.00000001,-0.00000114,-0.00000043,-0.00000063,-0
 .00000101,-0.00000077,-0.00000059,-0.00000024,-0.00000088,-0.00000017,
 0.00000042,-0.00000070,0.00000022,-0.00000055,0.00000148,-0.00000019\\
 \@
 The archive entry for this job was punched.


 Time has a wonderful way of weeding out the trivial.
                                -- Richard Ben Sapir
 Job cpu time:       3 days 20 hours 59 minutes 47.3 seconds.
 Elapsed time:       0 days  4 hours 39 minutes  0.4 seconds.
 File lengths (MBytes):  RWF=   2170 Int=      0 D2E=      0 Chk=     99 Scr=      1
 Normal termination of Gaussian 16 at Fri May 12 04:02:11 2023.
