 Entering Gaussian System, Link 0=g16
 Initial command:
 /usr/local/gaussian16c01/g16/l1.exe "/scr/akj/Gau-207315.inp" -scrdir="/scr/akj/"
 Entering Link 1 = /usr/local/gaussian16c01/g16/l1.exe PID=    207316.
  
 Copyright (c) 1988-2019, Gaussian, Inc.  All Rights Reserved.
  
 This is part of the Gaussian(R) 16 program.  It is based on
 the Gaussian(R) 09 system (copyright 2009, Gaussian, Inc.),
 the Gaussian(R) 03 system (copyright 2003, Gaussian, Inc.),
 the Gaussian(R) 98 system (copyright 1998, Gaussian, Inc.),
 the Gaussian(R) 94 system (copyright 1995, Gaussian, Inc.),
 the Gaussian 92(TM) system (copyright 1992, Gaussian, Inc.),
 the Gaussian 90(TM) system (copyright 1990, Gaussian, Inc.),
 the Gaussian 88(TM) system (copyright 1988, Gaussian, Inc.),
 the Gaussian 86(TM) system (copyright 1986, Carnegie Mellon
 University), and the Gaussian 82(TM) system (copyright 1983,
 Carnegie Mellon University). Gaussian is a federally registered
 trademark of Gaussian, Inc.
  
 This software contains proprietary and confidential information,
 including trade secrets, belonging to Gaussian, Inc.
  
 This software is provided under written license and may be
 used, copied, transmitted, or stored only in accord with that
 written license.
  
 The following legend is applicable only to US Government
 contracts under FAR:
  
                    RESTRICTED RIGHTS LEGEND
  
 Use, reproduction and disclosure by the US Government is
 subject to restrictions as set forth in subparagraphs (a)
 and (c) of the Commercial Computer Software - Restricted
 Rights clause in FAR 52.227-19.
  
 Gaussian, Inc.
 340 Quinnipiac St., Bldg. 40, Wallingford CT 06492
  
  
 ---------------------------------------------------------------
 Warning -- This program may not be used in any manner that
 competes with the business of Gaussian, Inc. or will provide
 assistance to any competitor of Gaussian, Inc.  The licensee
 of this program is prohibited from giving any competitor of
 Gaussian, Inc. access to this program.  By using this program,
 the user acknowledges that Gaussian, Inc. is engaged in the
 business of creating and licensing software in the field of
 computational chemistry and represents and warrants to the
 licensee that it is not a competitor of Gaussian, Inc. and that
 it will not use this program in any manner prohibited above.
 ---------------------------------------------------------------
  

 Cite this work as:
 Gaussian 16, Revision C.01,
 M. J. Frisch, G. W. Trucks, H. B. Schlegel, G. E. Scuseria, 
 M. A. Robb, J. R. Cheeseman, G. Scalmani, V. Barone, 
 G. A. Petersson, H. Nakatsuji, X. Li, M. Caricato, A. V. Marenich, 
 J. Bloino, B. G. Janesko, R. Gomperts, B. Mennucci, H. P. Hratchian, 
 J. V. Ortiz, A. F. Izmaylov, J. L. Sonnenberg, D. Williams-Young, 
 F. Ding, F. Lipparini, F. Egidi, J. Goings, B. Peng, A. Petrone, 
 T. Henderson, D. Ranasinghe, V. G. Zakrzewski, J. Gao, N. Rega, 
 G. Zheng, W. Liang, M. Hada, M. Ehara, K. Toyota, R. Fukuda, 
 J. Hasegawa, M. Ishida, T. Nakajima, Y. Honda, O. Kitao, H. Nakai, 
 T. Vreven, K. Throssell, J. A. Montgomery, Jr., J. E. Peralta, 
 F. Ogliaro, M. J. Bearpark, J. J. Heyd, E. N. Brothers, K. N. Kudin, 
 V. N. Staroverov, T. A. Keith, R. Kobayashi, J. Normand, 
 K. Raghavachari, A. P. Rendell, J. C. Burant, S. S. Iyengar, 
 J. Tomasi, M. Cossi, J. M. Millam, M. Klene, C. Adamo, R. Cammi, 
 J. W. Ochterski, R. L. Martin, K. Morokuma, O. Farkas, 
 J. B. Foresman, and D. J. Fox, Gaussian, Inc., Wallingford CT, 2019.
 
 ******************************************
 Gaussian 16:  ES64L-G16RevC.01  3-Jul-2019
                27-Apr-2023 
 ******************************************
 %nprocshared=20
 Will use up to   20 processors via shared memory.
 %mem=10000MW
 %chk=CYH-191-A_eq00002.chk
 ------------------------------------
 # opt freq M062x/aug-cc-pvtz pop=nbo
 ------------------------------------
 1/18=20,19=15,26=3,38=1/1,3;
 2/9=110,12=2,17=6,18=5,40=1/2;
 3/5=16,6=1,7=10,11=2,25=1,30=1,71=1,74=-55/1,2,3;
 4//1;
 5/5=2,38=5/2;
 6/7=2,8=2,9=2,10=2,28=1,40=1/1,7;
 7//1,2,3,16;
 1/18=20,19=15,26=3/3(2);
 2/9=110/2;
 99//99;
 2/9=110/2;
 3/5=16,6=1,7=10,11=2,25=1,30=1,71=1,74=-55/1,2,3;
 4/5=5,16=3,69=1/1;
 5/5=2,38=5/2;
 7//1,2,3,16;
 1/18=20,19=15,26=3/3(-5);
 2/9=110/2;
 6/7=2,8=2,9=2,10=2,19=2,28=1,40=1/1,7;
 99/9=1/99;
 -----------------
 CYH-191-A_eq00002
 -----------------
 Symbolic Z-matrix:
 Charge =  0 Multiplicity = 1
 C                    -0.27826   0.20167  -0.10059 
 C                     0.1079   -1.11769   0.12458 
 C                     1.44678  -1.37295   0.37398 
 N                     2.37066  -0.42803   0.40812 
 C                     2.00079   0.82244   0.19404 
 C                     0.69184   1.19952  -0.06543 
 C                    -1.70901   0.49709  -0.36982 
 O                    -2.57906  -0.33465  -0.4103 
 O                    -1.95033   1.79972  -0.56783 
 H                    -0.63056  -1.90338   0.10101 
 H                     1.80067  -2.37906   0.5554 
 H                     2.79464   1.55663   0.23292 
 H                     0.42716   2.2304   -0.23536 
 H                    -2.89503   1.9388   -0.73872 
 

 GradGradGradGradGradGradGradGradGradGradGradGradGradGradGradGradGradGrad
 Berny optimization.
 Initialization pass.
                           ----------------------------
                           !    Initial Parameters    !
                           ! (Angstroms and Degrees)  !
 --------------------------                            --------------------------
 ! Name  Definition              Value          Derivative Info.                !
 --------------------------------------------------------------------------------
 ! R1    R(1,2)                  1.393          estimate D2E/DX2                !
 ! R2    R(1,6)                  1.3921         estimate D2E/DX2                !
 ! R3    R(1,7)                  1.4855         estimate D2E/DX2                !
 ! R4    R(2,3)                  1.3856         estimate D2E/DX2                !
 ! R5    R(2,10)                 1.0785         estimate D2E/DX2                !
 ! R6    R(3,4)                  1.322          estimate D2E/DX2                !
 ! R7    R(3,11)                 1.0819         estimate D2E/DX2                !
 ! R8    R(4,5)                  1.3215         estimate D2E/DX2                !
 ! R9    R(5,6)                  1.3867         estimate D2E/DX2                !
 ! R10   R(5,12)                 1.082          estimate D2E/DX2                !
 ! R11   R(6,13)                 1.0778         estimate D2E/DX2                !
 ! R12   R(7,8)                  1.2043         estimate D2E/DX2                !
 ! R13   R(7,9)                  1.3395         estimate D2E/DX2                !
 ! R14   R(9,14)                 0.9701         estimate D2E/DX2                !
 ! A1    A(2,1,6)              118.7914         estimate D2E/DX2                !
 ! A2    A(2,1,7)              118.9878         estimate D2E/DX2                !
 ! A3    A(6,1,7)              122.2208         estimate D2E/DX2                !
 ! A4    A(1,2,3)              118.1269         estimate D2E/DX2                !
 ! A5    A(1,2,10)             119.7778         estimate D2E/DX2                !
 ! A6    A(3,2,10)             122.0954         estimate D2E/DX2                !
 ! A7    A(2,3,4)              123.2478         estimate D2E/DX2                !
 ! A8    A(2,3,11)             121.1702         estimate D2E/DX2                !
 ! A9    A(4,3,11)             115.582          estimate D2E/DX2                !
 ! A10   A(3,4,5)              118.4627         estimate D2E/DX2                !
 ! A11   A(4,5,6)              123.493          estimate D2E/DX2                !
 ! A12   A(4,5,12)             115.5252         estimate D2E/DX2                !
 ! A13   A(6,5,12)             120.9818         estimate D2E/DX2                !
 ! A14   A(1,6,5)              117.8783         estimate D2E/DX2                !
 ! A15   A(1,6,13)             120.6953         estimate D2E/DX2                !
 ! A16   A(5,6,13)             121.4264         estimate D2E/DX2                !
 ! A17   A(1,7,8)              124.3707         estimate D2E/DX2                !
 ! A18   A(1,7,9)              113.1842         estimate D2E/DX2                !
 ! A19   A(8,7,9)              122.4451         estimate D2E/DX2                !
 ! A20   A(7,9,14)             109.9322         estimate D2E/DX2                !
 ! D1    D(6,1,2,3)              0.0023         estimate D2E/DX2                !
 ! D2    D(6,1,2,10)          -179.999          estimate D2E/DX2                !
 ! D3    D(7,1,2,3)           -179.9972         estimate D2E/DX2                !
 ! D4    D(7,1,2,10)             0.0015         estimate D2E/DX2                !
 ! D5    D(2,1,6,5)             -0.0002         estimate D2E/DX2                !
 ! D6    D(2,1,6,13)           179.9985         estimate D2E/DX2                !
 ! D7    D(7,1,6,5)            179.9994         estimate D2E/DX2                !
 ! D8    D(7,1,6,13)            -0.002          estimate D2E/DX2                !
 ! D9    D(2,1,7,8)             -0.0667         estimate D2E/DX2                !
 ! D10   D(2,1,7,9)            179.9305         estimate D2E/DX2                !
 ! D11   D(6,1,7,8)            179.9338         estimate D2E/DX2                !
 ! D12   D(6,1,7,9)             -0.069          estimate D2E/DX2                !
 ! D13   D(1,2,3,4)             -0.0026         estimate D2E/DX2                !
 ! D14   D(1,2,3,11)           179.9978         estimate D2E/DX2                !
 ! D15   D(10,2,3,4)           179.9987         estimate D2E/DX2                !
 ! D16   D(10,2,3,11)           -0.0009         estimate D2E/DX2                !
 ! D17   D(2,3,4,5)              0.0006         estimate D2E/DX2                !
 ! D18   D(11,3,4,5)          -179.9998         estimate D2E/DX2                !
 ! D19   D(3,4,5,6)              0.0018         estimate D2E/DX2                !
 ! D20   D(3,4,5,12)          -179.9987         estimate D2E/DX2                !
 ! D21   D(4,5,6,1)             -0.002          estimate D2E/DX2                !
 ! D22   D(4,5,6,13)           179.9994         estimate D2E/DX2                !
 ! D23   D(12,5,6,1)           179.9985         estimate D2E/DX2                !
 ! D24   D(12,5,6,13)           -0.0002         estimate D2E/DX2                !
 ! D25   D(1,7,9,14)          -179.9963         estimate D2E/DX2                !
 ! D26   D(8,7,9,14)             0.001          estimate D2E/DX2                !
 --------------------------------------------------------------------------------
 Trust Radius=3.00D-01 FncErr=1.00D-07 GrdErr=1.00D-06 EigMax=2.50D+02 EigMin=1.00D-04
 Number of steps in this run=     70 maximum allowed number of steps=    100.
 GradGradGradGradGradGradGradGradGradGradGradGradGradGradGradGradGradGrad

                          Input orientation:                          
 ---------------------------------------------------------------------
 Center     Atomic      Atomic             Coordinates (Angstroms)
 Number     Number       Type             X           Y           Z
 ---------------------------------------------------------------------
      1          6           0       -0.278257    0.201669   -0.100587
      2          6           0        0.107897   -1.117688    0.124581
      3          6           0        1.446782   -1.372949    0.373980
      4          7           0        2.370657   -0.428031    0.408121
      5          6           0        2.000788    0.822438    0.194037
      6          6           0        0.691841    1.199519   -0.065429
      7          6           0       -1.709010    0.497086   -0.369820
      8          8           0       -2.579059   -0.334653   -0.410299
      9          8           0       -1.950328    1.799720   -0.567831
     10          1           0       -0.630559   -1.903381    0.101013
     11          1           0        1.800669   -2.379057    0.555397
     12          1           0        2.794644    1.556629    0.232917
     13          1           0        0.427165    2.230403   -0.235358
     14          1           0       -2.895030    1.938796   -0.738722
 ---------------------------------------------------------------------
                    Distance matrix (angstroms):
                    1          2          3          4          5
     1  C    0.000000
     2  C    1.393025   0.000000
     3  C    2.383358   1.385630   0.000000
     4  N    2.769846   2.382457   1.321961   0.000000
     5  C    2.380378   2.711447   2.271349   1.321479   0.000000
     6  C    1.392131   2.397194   2.716727   2.385705   1.386670
     7  C    1.485534   2.480540   3.742899   4.254963   3.766482
     8  O    2.382699   2.849381   4.230904   5.017790   4.762256
     9  O    2.359641   3.636894   4.742699   4.958454   4.140874
    10  H    2.143828   1.078512   2.161300   3.358314   3.789820
    11  H    3.378223   2.154560   1.081850   2.037910   3.228033
    12  H    3.374886   3.792402   3.227856   2.036992   1.082014
    13  H    2.152102   3.382484   3.794082   3.355368   2.154770
    14  H    3.205048   4.370922   5.572890   5.885965   5.107380
                    6          7          8          9         10
     6  C    0.000000
     7  C    2.519950   0.000000
     8  O    3.629243   1.204331   0.000000
     9  O    2.755668   1.339515   2.230621   0.000000
    10  H    3.377045   2.673384   2.553233   3.987744   0.000000
    11  H    3.797516   4.630990   4.928912   5.726587   2.518651
    12  H    2.153675   4.665706   5.733005   4.818199   4.870430
    13  H    1.077799   2.754217   3.955692   2.438954   4.280198
    14  H    3.723641   1.902961   2.318679   0.970056   4.538206
                   11         12         13         14
    11  H    0.000000
    12  H    4.072051   0.000000
    13  H    4.874313   2.505635   0.000000
    14  H    6.509085   5.784680   3.372742   0.000000
 Stoichiometry    C6H5NO2
 Framework group  C1[X(C6H5NO2)]
 Deg. of freedom    36
 Full point group                 C1      NOp   1
 Largest Abelian subgroup         C1      NOp   1
 Largest concise Abelian subgroup C1      NOp   1
                         Standard orientation:                         
 ---------------------------------------------------------------------
 Center     Atomic      Atomic             Coordinates (Angstroms)
 Number     Number       Type             X           Y           Z
 ---------------------------------------------------------------------
      1          6           0        0.208190    0.033593   -0.000078
      2          6           0       -0.538664    1.209488    0.000359
      3          6           0       -1.920404    1.105734    0.000436
      4          7           0       -2.560365   -0.050999    0.000064
      5          6           0       -1.848705   -1.164483   -0.000391
      6          6           0       -0.462209   -1.186487   -0.000466
      7          6           0        1.691058    0.122556   -0.000105
      8          8           0        2.310206    1.155546   -0.000928
      9          8           0        2.291202   -1.074993    0.000949
     10          1           0       -0.035642    2.163509    0.000646
     11          1           0       -2.548091    1.986874    0.000804
     12          1           0       -2.420338   -2.083172   -0.000704
     13          1           0        0.085095   -2.114985   -0.000833
     14          1           0        3.254663   -0.962064    0.000943
 ---------------------------------------------------------------------
 Rotational constants (GHZ):           4.0780703           1.2313427           0.9457736
 Standard basis: Aug-CC-pVTZ (5D, 7F)
 There are   620 symmetry adapted cartesian basis functions of A   symmetry.
 There are   529 symmetry adapted basis functions of A   symmetry.
   529 basis functions,   783 primitive gaussians,   620 cartesian basis functions
    32 alpha electrons       32 beta electrons
       nuclear repulsion energy       409.9937530517 Hartrees.
 NAtoms=   14 NActive=   14 NUniq=   14 SFac= 1.00D+00 NAtFMM=   60 NAOKFM=F Big=F
 Integral buffers will be    131072 words long.
 Raffenetti 2 integral format.
 Two-electron integral symmetry is turned on.
 One-electron integrals computed using PRISM.
 NBasis=   529 RedAO= T EigKep=  2.03D-06  NBF=   529
 NBsUse=   529 1.00D-06 EigRej= -1.00D+00 NBFU=   529
 ExpMin= 2.53D-02 ExpMax= 1.53D+04 ExpMxC= 5.22D+02 IAcc=3 IRadAn=         5 AccDes= 0.00D+00
 Harris functional with IExCor= 1009 and IRadAn=       5 diagonalized for initial guess.
 HarFok:  IExCor= 1009 AccDes= 0.00D+00 IRadAn=         5 IDoV= 1 UseB2=F ITyADJ=14
 ICtDFT=  3500011 ScaDFX=  1.000000  1.000000  1.000000  1.000000
 FoFCou: FMM=F IPFlag=           0 FMFlag=      100000 FMFlg1=           0
         NFxFlg=           0 DoJE=T BraDBF=F KetDBF=T FulRan=T
         wScrn=  0.000000 ICntrl=       500 IOpCl=  0 I1Cent=   200000004 NGrid=           0
         NMat0=    1 NMatS0=      1 NMatT0=    0 NMatD0=    1 NMtDS0=    0 NMtDT0=    0
 Petite list used in FoFCou.
 Requested convergence on RMS density matrix=1.00D-08 within 128 cycles.
 Requested convergence on MAX density matrix=1.00D-06.
 Requested convergence on             energy=1.00D-06.
 No special actions if energy rises.
 SCF Done:  E(RM062X) =  -436.856151528     A.U. after   13 cycles
            NFock= 13  Conv=0.75D-08     -V/T= 2.0050

 **********************************************************************

            Population analysis using the SCF Density.

 **********************************************************************

 Orbital symmetries:
       Occupied  (A) (A) (A) (A) (A) (A) (A) (A) (A) (A) (A) (A)
                 (A) (A) (A) (A) (A) (A) (A) (A) (A) (A) (A) (A)
                 (A) (A) (A) (A) (A) (A) (A) (A)
       Virtual   (A) (A) (A) (A) (A) (A) (A) (A) (A) (A) (A) (A)
                 (A) (A) (A) (A) (A) (A) (A) (A) (A) (A) (A) (A)
                 (A) (A) (A) (A) (A) (A) (A) (A) (A) (A) (A) (A)
                 (A) (A) (A) (A) (A) (A) (A) (A) (A) (A) (A) (A)
                 (A) (A) (A) (A) (A) (A) (A) (A) (A) (A) (A) (A)
                 (A) (A) (A) (A) (A) (A) (A) (A) (A) (A) (A) (A)
                 (A) (A) (A) (A) (A) (A) (A) (A) (A) (A) (A) (A)
                 (A) (A) (A) (A) (A) (A) (A) (A) (A) (A) (A) (A)
                 (A) (A) (A) (A) (A) (A) (A) (A) (A) (A) (A) (A)
                 (A) (A) (A) (A) (A) (A) (A) (A) (A) (A) (A) (A)
                 (A) (A) (A) (A) (A) (A) (A) (A) (A) (A) (A) (A)
                 (A) (A) (A) (A) (A) (A) (A) (A) (A) (A) (A) (A)
                 (A) (A) (A) (A) (A) (A) (A) (A) (A) (A) (A) (A)
                 (A) (A) (A) (A) (A) (A) (A) (A) (A) (A) (A) (A)
                 (A) (A) (A) (A) (A) (A) (A) (A) (A) (A) (A) (A)
                 (A) (A) (A) (A) (A) (A) (A) (A) (A) (A) (A) (A)
                 (A) (A) (A) (A) (A) (A) (A) (A) (A) (A) (A) (A)
                 (A) (A) (A) (A) (A) (A) (A) (A) (A) (A) (A) (A)
                 (A) (A) (A) (A) (A) (A) (A) (A) (A) (A) (A) (A)
                 (A) (A) (A) (A) (A) (A) (A) (A) (A) (A) (A) (A)
                 (A) (A) (A) (A) (A) (A) (A) (A) (A) (A) (A) (A)
                 (A) (A) (A) (A) (A) (A) (A) (A) (A) (A) (A) (A)
                 (A) (A) (A) (A) (A) (A) (A) (A) (A) (A) (A) (A)
                 (A) (A) (A) (A) (A) (A) (A) (A) (A) (A) (A) (A)
                 (A) (A) (A) (A) (A) (A) (A) (A) (A) (A) (A) (A)
                 (A) (A) (A) (A) (A) (A) (A) (A) (A) (A) (A) (A)
                 (A) (A) (A) (A) (A) (A) (A) (A) (A) (A) (A) (A)
                 (A) (A) (A) (A) (A) (A) (A) (A) (A) (A) (A) (A)
                 (A) (A) (A) (A) (A) (A) (A) (A) (A) (A) (A) (A)
                 (A) (A) (A) (A) (A) (A) (A) (A) (A) (A) (A) (A)
                 (A) (A) (A) (A) (A) (A) (A) (A) (A) (A) (A) (A)
                 (A) (A) (A) (A) (A) (A) (A) (A) (A) (A) (A) (A)
                 (A) (A) (A) (A) (A) (A) (A) (A) (A) (A) (A) (A)
                 (A) (A) (A) (A) (A) (A) (A) (A) (A) (A) (A) (A)
                 (A) (A) (A) (A) (A) (A) (A) (A) (A) (A) (A) (A)
                 (A) (A) (A) (A) (A) (A) (A) (A) (A) (A) (A) (A)
                 (A) (A) (A) (A) (A) (A) (A) (A) (A) (A) (A) (A)
                 (A) (A) (A) (A) (A) (A) (A) (A) (A) (A) (A) (A)
                 (A) (A) (A) (A) (A) (A) (A) (A) (A) (A) (A) (A)
                 (A) (A) (A) (A) (A) (A) (A) (A) (A) (A) (A) (A)
                 (A) (A) (A) (A) (A) (A) (A) (A) (A) (A) (A) (A)
                 (A) (A) (A) (A) (A)
 The electronic state is 1-A.
 Alpha  occ. eigenvalues --  -19.69124 -19.63391 -14.76233 -10.69787 -10.58978
 Alpha  occ. eigenvalues --  -10.58925 -10.58785 -10.57031 -10.56838  -1.25837
 Alpha  occ. eigenvalues --   -1.16045  -1.07738  -0.93982  -0.88042  -0.79208
 Alpha  occ. eigenvalues --   -0.73993  -0.70150  -0.63805  -0.60152  -0.56553
 Alpha  occ. eigenvalues --   -0.56033  -0.55790  -0.54375  -0.51478  -0.49178
 Alpha  occ. eigenvalues --   -0.48734  -0.43990  -0.42006  -0.38116  -0.36528
 Alpha  occ. eigenvalues --   -0.33916  -0.33571
 Alpha virt. eigenvalues --   -0.04626  -0.01117  -0.00116   0.00270   0.00707
 Alpha virt. eigenvalues --    0.02410   0.02734   0.02809   0.04046   0.04760
 Alpha virt. eigenvalues --    0.05773   0.06107   0.06620   0.07223   0.07775
 Alpha virt. eigenvalues --    0.07912   0.08207   0.09239   0.09438   0.09536
 Alpha virt. eigenvalues --    0.09847   0.09982   0.10233   0.10830   0.11117
 Alpha virt. eigenvalues --    0.12127   0.13978   0.14442   0.15500   0.15929
 Alpha virt. eigenvalues --    0.16617   0.16699   0.17655   0.18184   0.19006
 Alpha virt. eigenvalues --    0.19080   0.19288   0.20198   0.20338   0.21383
 Alpha virt. eigenvalues --    0.21537   0.22031   0.22630   0.22777   0.23518
 Alpha virt. eigenvalues --    0.24197   0.24401   0.24430   0.25832   0.26116
 Alpha virt. eigenvalues --    0.26564   0.26830   0.28090   0.29718   0.30186
 Alpha virt. eigenvalues --    0.30422   0.30618   0.32644   0.32908   0.33023
 Alpha virt. eigenvalues --    0.33473   0.33521   0.34467   0.34572   0.34920
 Alpha virt. eigenvalues --    0.35665   0.35884   0.36082   0.36799   0.36910
 Alpha virt. eigenvalues --    0.38150   0.38365   0.38539   0.40788   0.41275
 Alpha virt. eigenvalues --    0.41344   0.41634   0.41803   0.42421   0.43354
 Alpha virt. eigenvalues --    0.43850   0.44165   0.44966   0.45170   0.46303
 Alpha virt. eigenvalues --    0.47232   0.47908   0.49313   0.51091   0.51315
 Alpha virt. eigenvalues --    0.51627   0.53204   0.53282   0.53935   0.54895
 Alpha virt. eigenvalues --    0.54905   0.55446   0.56693   0.57328   0.58254
 Alpha virt. eigenvalues --    0.59476   0.59812   0.61407   0.62132   0.62980
 Alpha virt. eigenvalues --    0.64049   0.65004   0.65453   0.66740   0.67020
 Alpha virt. eigenvalues --    0.67340   0.68701   0.69864   0.70489   0.70837
 Alpha virt. eigenvalues --    0.71778   0.72575   0.72773   0.73505   0.74270
 Alpha virt. eigenvalues --    0.74736   0.74811   0.75445   0.76089   0.76544
 Alpha virt. eigenvalues --    0.77757   0.77986   0.78528   0.80822   0.81021
 Alpha virt. eigenvalues --    0.82587   0.83553   0.83793   0.83950   0.84596
 Alpha virt. eigenvalues --    0.84812   0.85437   0.85749   0.87602   0.87954
 Alpha virt. eigenvalues --    0.88593   0.89497   0.90423   0.90766   0.90894
 Alpha virt. eigenvalues --    0.91264   0.92232   0.93076   0.93351   0.94419
 Alpha virt. eigenvalues --    0.94628   0.95635   0.95906   0.96396   0.98432
 Alpha virt. eigenvalues --    0.99022   0.99494   0.99948   1.02170   1.02597
 Alpha virt. eigenvalues --    1.02703   1.02765   1.03845   1.03935   1.05137
 Alpha virt. eigenvalues --    1.05597   1.06340   1.07612   1.07719   1.08485
 Alpha virt. eigenvalues --    1.10618   1.11322   1.12529   1.12855   1.13606
 Alpha virt. eigenvalues --    1.14094   1.14472   1.15591   1.16794   1.18021
 Alpha virt. eigenvalues --    1.19232   1.21529   1.23910   1.23947   1.25160
 Alpha virt. eigenvalues --    1.25578   1.26993   1.28165   1.29446   1.29902
 Alpha virt. eigenvalues --    1.30728   1.31020   1.34011   1.34749   1.35194
 Alpha virt. eigenvalues --    1.36148   1.37968   1.38185   1.41097   1.42332
 Alpha virt. eigenvalues --    1.43129   1.44609   1.44721   1.46364   1.47436
 Alpha virt. eigenvalues --    1.48671   1.50059   1.50436   1.50836   1.52320
 Alpha virt. eigenvalues --    1.52702   1.53123   1.54795   1.55604   1.56330
 Alpha virt. eigenvalues --    1.57587   1.58674   1.60183   1.61917   1.64171
 Alpha virt. eigenvalues --    1.64462   1.64784   1.68642   1.69590   1.69660
 Alpha virt. eigenvalues --    1.70171   1.72459   1.73792   1.75330   1.75537
 Alpha virt. eigenvalues --    1.75902   1.76137   1.77331   1.79308   1.79910
 Alpha virt. eigenvalues --    1.80665   1.83560   1.85226   1.85547   1.85834
 Alpha virt. eigenvalues --    1.87420   1.88466   1.90041   1.90711   1.90953
 Alpha virt. eigenvalues --    1.92831   1.93910   1.94000   1.96435   1.96859
 Alpha virt. eigenvalues --    1.99399   2.00523   2.02953   2.03566   2.04933
 Alpha virt. eigenvalues --    2.08475   2.08706   2.11324   2.13997   2.15356
 Alpha virt. eigenvalues --    2.15372   2.15920   2.16862   2.20636   2.20765
 Alpha virt. eigenvalues --    2.20924   2.24030   2.24201   2.25714   2.29091
 Alpha virt. eigenvalues --    2.29192   2.30511   2.31449   2.31880   2.35120
 Alpha virt. eigenvalues --    2.35203   2.37881   2.38130   2.39160   2.40018
 Alpha virt. eigenvalues --    2.40708   2.46031   2.47854   2.48331   2.50943
 Alpha virt. eigenvalues --    2.51943   2.53478   2.54211   2.57559   2.59194
 Alpha virt. eigenvalues --    2.61762   2.62916   2.63540   2.71068   2.71092
 Alpha virt. eigenvalues --    2.73177   2.74623   2.77400   2.78839   2.82971
 Alpha virt. eigenvalues --    2.83542   2.85851   2.90544   2.91543   2.91896
 Alpha virt. eigenvalues --    2.93527   2.95113   2.96667   2.98155   2.99107
 Alpha virt. eigenvalues --    3.00649   3.03723   3.03946   3.06117   3.08397
 Alpha virt. eigenvalues --    3.10340   3.12157   3.12355   3.13524   3.15055
 Alpha virt. eigenvalues --    3.16810   3.17795   3.19043   3.22912   3.23125
 Alpha virt. eigenvalues --    3.23345   3.25427   3.25928   3.27132   3.27955
 Alpha virt. eigenvalues --    3.30552   3.32122   3.34510   3.37895   3.39611
 Alpha virt. eigenvalues --    3.40592   3.42832   3.44739   3.44974   3.45058
 Alpha virt. eigenvalues --    3.45719   3.47181   3.49405   3.52046   3.53286
 Alpha virt. eigenvalues --    3.55177   3.56667   3.57112   3.58255   3.58876
 Alpha virt. eigenvalues --    3.59998   3.63869   3.65199   3.66250   3.68011
 Alpha virt. eigenvalues --    3.69211   3.69846   3.70382   3.74953   3.75692
 Alpha virt. eigenvalues --    3.78072   3.78190   3.80620   3.81456   3.82479
 Alpha virt. eigenvalues --    3.82959   3.86036   3.88676   3.88756   3.89066
 Alpha virt. eigenvalues --    3.89304   3.90079   3.93017   3.93067   3.97915
 Alpha virt. eigenvalues --    3.97968   3.99390   3.99720   4.01456   4.02045
 Alpha virt. eigenvalues --    4.06201   4.06792   4.07255   4.09560   4.13868
 Alpha virt. eigenvalues --    4.14304   4.16196   4.17555   4.20756   4.21263
 Alpha virt. eigenvalues --    4.24882   4.26060   4.27119   4.27306   4.30526
 Alpha virt. eigenvalues --    4.30745   4.34967   4.36617   4.39091   4.44396
 Alpha virt. eigenvalues --    4.48029   4.48385   4.50647   4.53018   4.53822
 Alpha virt. eigenvalues --    4.54556   4.56441   4.56866   4.59697   4.62447
 Alpha virt. eigenvalues --    4.64507   4.67798   4.68786   4.72778   4.73538
 Alpha virt. eigenvalues --    4.75382   4.75967   4.76715   4.77506   4.82053
 Alpha virt. eigenvalues --    4.84579   4.88388   4.89467   4.91589   4.93072
 Alpha virt. eigenvalues --    4.99208   5.03030   5.04930   5.07539   5.07548
 Alpha virt. eigenvalues --    5.10435   5.13127   5.13345   5.15010   5.18233
 Alpha virt. eigenvalues --    5.20743   5.24853   5.34490   5.36312   5.37326
 Alpha virt. eigenvalues --    5.39455   5.42553   5.44809   5.49299   5.51908
 Alpha virt. eigenvalues --    5.61071   5.62104   5.72486   5.77698   5.80095
 Alpha virt. eigenvalues --    5.81308   5.86095   5.99338   6.02201   6.04160
 Alpha virt. eigenvalues --    6.18749   6.20186   6.21104   6.21699   6.22573
 Alpha virt. eigenvalues --    6.31709   6.33369   6.35448   6.38184   6.42488
 Alpha virt. eigenvalues --    6.47229   6.52373   6.54559   6.54926   6.59363
 Alpha virt. eigenvalues --    6.69200   6.74303   6.76817   6.80360   6.82874
 Alpha virt. eigenvalues --    6.85028   6.89180   6.97847   7.04470   7.05413
 Alpha virt. eigenvalues --    7.11056   7.13223   7.28407   7.34596   7.46149
 Alpha virt. eigenvalues --    7.57388   7.80584   8.04294  14.72297  15.05942
 Alpha virt. eigenvalues --   16.16604  16.33953  17.78028  17.91027  18.58208
 Alpha virt. eigenvalues --   19.24980  19.55103
          Condensed to atoms (all electrons):
               1          2          3          4          5          6
     1  C    5.986690  -0.423545   0.126472  -0.248372   0.021037  -0.282358
     2  C   -0.423545   6.918822  -0.113831   0.234905  -0.118527  -0.138579
     3  C    0.126472  -0.113831   6.977373  -0.247138  -0.141731  -0.102267
     4  N   -0.248372   0.234905  -0.247138   8.168536  -0.232300   0.169447
     5  C    0.021037  -0.118527  -0.141731  -0.232300   7.033774  -0.080437
     6  C   -0.282358  -0.138579  -0.102267   0.169447  -0.080437   6.647227
     7  C   -0.270267  -0.029687  -0.139568   0.088705  -0.032629  -0.171408
     8  O   -0.053357   0.021488   0.015523  -0.006661  -0.007136  -0.001329
     9  O   -0.034734   0.004884   0.007885  -0.005882   0.006532  -0.023213
    10  H   -0.263989   0.417978  -0.289081   0.056752   0.002310   0.064646
    11  H    0.042400  -0.186647   0.306938  -0.206236   0.032212  -0.009873
    12  H    0.022474  -0.017685   0.042039  -0.171104   0.284442  -0.133788
    13  H   -0.249178   0.058676  -0.021770   0.035178  -0.253867   0.414898
    14  H   -0.025531  -0.007777  -0.007257   0.001754  -0.000630   0.005076
               7          8          9         10         11         12
     1  C   -0.270267  -0.053357  -0.034734  -0.263989   0.042400   0.022474
     2  C   -0.029687   0.021488   0.004884   0.417978  -0.186647  -0.017685
     3  C   -0.139568   0.015523   0.007885  -0.289081   0.306938   0.042039
     4  N    0.088705  -0.006661  -0.005882   0.056752  -0.206236  -0.171104
     5  C   -0.032629  -0.007136   0.006532   0.002310   0.032212   0.284442
     6  C   -0.171408  -0.001329  -0.023213   0.064646  -0.009873  -0.133788
     7  C    6.160114  -0.119430   0.054947   0.002010  -0.014063  -0.007989
     8  O   -0.119430   9.249777  -0.078698  -0.028682   0.001015   0.000031
     9  O    0.054947  -0.078698   8.505786   0.002679   0.000504  -0.000026
    10  H    0.002010  -0.028682   0.002679   0.948658  -0.065617  -0.000454
    11  H   -0.014063   0.001015   0.000504  -0.065617   0.459290   0.001654
    12  H   -0.007989   0.000031  -0.000026  -0.000454   0.001654   0.444498
    13  H   -0.015226   0.004870  -0.067831  -0.007161  -0.000444  -0.059137
    14  H    0.108959  -0.117916   0.139233   0.002800  -0.000383  -0.000236
              13         14
     1  C   -0.249178  -0.025531
     2  C    0.058676  -0.007777
     3  C   -0.021770  -0.007257
     4  N    0.035178   0.001754
     5  C   -0.253867  -0.000630
     6  C    0.414898   0.005076
     7  C   -0.015226   0.108959
     8  O    0.004870  -0.117916
     9  O   -0.067831   0.139233
    10  H   -0.007161   0.002800
    11  H   -0.000444  -0.000383
    12  H   -0.059137  -0.000236
    13  H    0.947798  -0.000185
    14  H   -0.000185   0.610640
 Mulliken charges:
               1
     1  C    1.652257
     2  C   -0.620474
     3  C   -0.413587
     4  N   -0.637583
     5  C   -0.513051
     6  C   -0.358043
     7  C    0.385531
     8  O   -0.879495
     9  O   -0.512065
    10  H    0.157149
    11  H    0.639248
    12  H    0.595281
    13  H    0.213379
    14  H    0.291452
 Sum of Mulliken charges =   0.00000
 Mulliken charges with hydrogens summed into heavy atoms:
               1
     1  C    1.652257
     2  C   -0.463325
     3  C    0.225661
     4  N   -0.637583
     5  C    0.082229
     6  C   -0.144663
     7  C    0.385531
     8  O   -0.879495
     9  O   -0.220612
 Electronic spatial extent (au):  <R**2>=           1142.1830
 Charge=              0.0000 electrons
 Dipole moment (field-independent basis, Debye):
    X=              1.0887    Y=             -1.4838    Z=              0.0013  Tot=              1.8403
 Quadrupole moment (field-independent basis, Debye-Ang):
   XX=            -53.6574   YY=            -47.8554   ZZ=            -52.8166
   XY=             -6.2309   XZ=              0.0054   YZ=              0.0068
 Traceless Quadrupole moment (field-independent basis, Debye-Ang):
   XX=             -2.2143   YY=              3.5877   ZZ=             -1.3735
   XY=             -6.2309   XZ=              0.0054   YZ=              0.0068
 Octapole moment (field-independent basis, Debye-Ang**2):
  XXX=             65.3294  YYY=             -2.7349  ZZZ=              0.0005  XYY=            -11.2186
  XXY=            -19.3763  XXZ=              0.0189  XZZ=              8.3586  YZZ=              0.0873
  YYZ=              0.0022  XYZ=              0.0019
 Hexadecapole moment (field-independent basis, Debye-Ang**3):
 XXXX=          -1016.9221 YYYY=           -351.2340 ZZZZ=            -54.4921 XXXY=            -79.2801
 XXXZ=              0.0723 YYYX=             -9.0492 YYYZ=              0.0170 ZZZX=              0.0021
 ZZZY=             -0.0082 XXYY=           -220.5414 XXZZ=           -185.9393 YYZZ=            -77.2947
 XXYZ=              0.0165 YYXZ=              0.0070 ZZXY=             -0.3611
 N-N= 4.099937530517D+02 E-N=-1.840133896266D+03  KE= 4.346726415709D+02
 ******************************Gaussian NBO Version 3.1******************************
             N A T U R A L   A T O M I C   O R B I T A L   A N D
          N A T U R A L   B O N D   O R B I T A L   A N A L Y S I S
 ******************************Gaussian NBO Version 3.1******************************
       /RESON  / : Allow strongly delocalized NBO set

 Analyzing the SCF density

 Job title: CYH-191-A_eq00002                                               

 Storage needed:    841759 in NPA,   1121193 in NBO (********** available)
 GSVD:  LWork=       -2903 too small for GESVD, short by      565025 words or      565025 for optimal perf.


 NATURAL POPULATIONS:  Natural atomic orbital occupancies 
                                                          
   NAO  Atom  No  lang   Type(AO)    Occupancy      Energy
 ----------------------------------------------------------
     1    C    1  S      Cor( 1S)     1.99902     -10.43648
     2    C    1  S      Val( 2S)     0.94141      -0.21802
     3    C    1  S      Ryd( 3S)     0.00138       1.82514
     4    C    1  S      Ryd( 4S)     0.00006       2.68733
     5    C    1  S      Ryd( 5S)     0.00003       3.39387
     6    C    1  px     Val( 2p)     1.05606      -0.10972
     7    C    1  px     Ryd( 4p)     0.00632       2.02281
     8    C    1  px     Ryd( 5p)     0.00007       2.17705
     9    C    1  px     Ryd( 3p)     0.00008       1.24522
    10    C    1  py     Val( 2p)     1.09760      -0.10803
    11    C    1  py     Ryd( 4p)     0.00584       1.86126
    12    C    1  py     Ryd( 5p)     0.00004       1.93293
    13    C    1  py     Ryd( 3p)     0.00004       1.13540
    14    C    1  pz     Val( 2p)     1.01808      -0.14946
    15    C    1  pz     Ryd( 4p)     0.00053       0.86082
    16    C    1  pz     Ryd( 5p)     0.00006       1.60579
    17    C    1  pz     Ryd( 3p)     0.00001       0.75681
    18    C    1  dxy    Ryd( 3d)     0.00099       2.94032
    19    C    1  dxy    Ryd( 4d)     0.00040       3.76071
    20    C    1  dxy    Ryd( 5d)     0.00012       4.87078
    21    C    1  dxz    Ryd( 3d)     0.00013       1.39958
    22    C    1  dxz    Ryd( 5d)     0.00009       3.00908
    23    C    1  dxz    Ryd( 4d)     0.00006       1.83443
    24    C    1  dyz    Ryd( 3d)     0.00071       1.26506
    25    C    1  dyz    Ryd( 5d)     0.00004       2.96460
    26    C    1  dyz    Ryd( 4d)     0.00002       2.06869
    27    C    1  dx2y2  Ryd( 3d)     0.00277       3.20116
    28    C    1  dx2y2  Ryd( 5d)     0.00028       3.90296
    29    C    1  dx2y2  Ryd( 4d)     0.00008       3.59838
    30    C    1  dz2    Ryd( 3d)     0.00087       1.68258
    31    C    1  dz2    Ryd( 4d)     0.00013       3.70906
    32    C    1  dz2    Ryd( 5d)     0.00009       5.10595
    33    C    1  f(0)   Ryd( 4f)     0.00059       1.28819
    34    C    1  f(0)   Ryd( 5f)     0.00010       3.49707
    35    C    1  f(C1)  Ryd( 4f)     0.00027       1.66486
    36    C    1  f(C1)  Ryd( 5f)     0.00035       3.63127
    37    C    1  f(S1)  Ryd( 4f)     0.00061       1.57455
    38    C    1  f(S1)  Ryd( 5f)     0.00024       3.61327
    39    C    1  f(C2)  Ryd( 4f)     0.00060       1.22144
    40    C    1  f(C2)  Ryd( 5f)     0.00002       3.52974
    41    C    1  f(S2)  Ryd( 4f)     0.00055       1.21546
    42    C    1  f(S2)  Ryd( 5f)     0.00003       3.54633
    43    C    1  f(C3)  Ryd( 4f)     0.00082       1.67879
    44    C    1  f(C3)  Ryd( 5f)     0.00011       4.17132
    45    C    1  f(S3)  Ryd( 4f)     0.00213       2.20130
    46    C    1  f(S3)  Ryd( 5f)     0.00015       4.38204
 
    47    C    2  S      Cor( 1S)     1.99919     -10.41296
    48    C    2  S      Val( 2S)     0.98257      -0.23685
    49    C    2  S      Ryd( 4S)     0.00112       1.75583
    50    C    2  S      Ryd( 5S)     0.00008       3.34721
    51    C    2  S      Ryd( 3S)     0.00003       1.63819
    52    C    2  px     Val( 2p)     1.08270      -0.08725
    53    C    2  px     Ryd( 4p)     0.00330       1.77620
    54    C    2  px     Ryd( 5p)     0.00008       1.80006
    55    C    2  px     Ryd( 3p)     0.00010       1.18777
    56    C    2  py     Val( 2p)     1.15346      -0.09257
    57    C    2  py     Ryd( 4p)     0.00372       1.65611
    58    C    2  py     Ryd( 5p)     0.00008       1.84030
    59    C    2  py     Ryd( 3p)     0.00004       1.36671
    60    C    2  pz     Val( 2p)     0.96522      -0.13707
    61    C    2  pz     Ryd( 4p)     0.00071       1.02715
    62    C    2  pz     Ryd( 5p)     0.00004       1.28047
    63    C    2  pz     Ryd( 3p)     0.00002       1.01305
    64    C    2  dxy    Ryd( 3d)     0.00157       2.64351
    65    C    2  dxy    Ryd( 5d)     0.00018       3.68188
    66    C    2  dxy    Ryd( 4d)     0.00005       2.73531
    67    C    2  dxz    Ryd( 3d)     0.00058       1.42334
    68    C    2  dxz    Ryd( 5d)     0.00002       2.89752
    69    C    2  dxz    Ryd( 4d)     0.00002       1.72783
    70    C    2  dyz    Ryd( 4d)     0.00022       1.40221
    71    C    2  dyz    Ryd( 5d)     0.00005       2.97663
    72    C    2  dyz    Ryd( 3d)     0.00003       1.40142
    73    C    2  dx2y2  Ryd( 4d)     0.00178       2.97598
    74    C    2  dx2y2  Ryd( 5d)     0.00021       3.84892
    75    C    2  dx2y2  Ryd( 3d)     0.00006       2.24186
    76    C    2  dz2    Ryd( 3d)     0.00083       1.76407
    77    C    2  dz2    Ryd( 4d)     0.00008       3.55015
    78    C    2  dz2    Ryd( 5d)     0.00008       3.56457
    79    C    2  f(0)   Ryd( 5f)     0.00010       3.43971
    80    C    2  f(0)   Ryd( 4f)     0.00003       2.09272
    81    C    2  f(C1)  Ryd( 5f)     0.00027       3.69066
    82    C    2  f(C1)  Ryd( 4f)     0.00003       3.02360
    83    C    2  f(S1)  Ryd( 5f)     0.00017       3.66255
    84    C    2  f(S1)  Ryd( 4f)     0.00002       2.68328
    85    C    2  f(C2)  Ryd( 5f)     0.00001       3.55216
    86    C    2  f(C2)  Ryd( 4f)     0.00002       2.20714
    87    C    2  f(S2)  Ryd( 5f)     0.00001       3.57689
    88    C    2  f(S2)  Ryd( 4f)     0.00001       2.03775
    89    C    2  f(C3)  Ryd( 4f)     0.00018       4.12651
    90    C    2  f(C3)  Ryd( 5f)     0.00003       5.50240
    91    C    2  f(S3)  Ryd( 5f)     0.00004       4.21921
    92    C    2  f(S3)  Ryd( 4f)     0.00013       3.78380
 
    93    C    3  S      Cor( 1S)     1.99932     -10.44395
    94    C    3  S      Val( 2S)     0.93753      -0.21539
    95    C    3  S      Ryd( 3S)     0.00247       1.73529
    96    C    3  S      Ryd( 5S)     0.00010       1.91420
    97    C    3  S      Ryd( 4S)     0.00004       1.73776
    98    C    3  px     Val( 2p)     1.04726      -0.06802
    99    C    3  px     Ryd( 5p)     0.00654       1.57195
   100    C    3  px     Ryd( 4p)     0.00025       1.37257
   101    C    3  px     Ryd( 3p)     0.00003       1.27076
   102    C    3  py     Val( 2p)     1.02637      -0.06704
   103    C    3  py     Ryd( 4p)     0.00561       1.52470
   104    C    3  py     Ryd( 3p)     0.00012       1.49974
   105    C    3  py     Ryd( 5p)     0.00007       1.52748
   106    C    3  pz     Val( 2p)     0.92252      -0.13129
   107    C    3  pz     Ryd( 4p)     0.00109       0.99659
   108    C    3  pz     Ryd( 5p)     0.00003       1.14614
   109    C    3  pz     Ryd( 3p)     0.00003       0.78747
   110    C    3  dxy    Ryd( 3d)     0.00248       2.12680
   111    C    3  dxy    Ryd( 5d)     0.00024       3.49691
   112    C    3  dxy    Ryd( 4d)     0.00007       3.00006
   113    C    3  dxz    Ryd( 3d)     0.00035       1.34188
   114    C    3  dxz    Ryd( 5d)     0.00006       2.59128
   115    C    3  dxz    Ryd( 4d)     0.00003       1.99691
   116    C    3  dyz    Ryd( 3d)     0.00029       1.32149
   117    C    3  dyz    Ryd( 5d)     0.00016       2.65553
   118    C    3  dyz    Ryd( 4d)     0.00003       1.88294
   119    C    3  dx2y2  Ryd( 3d)     0.00229       2.48445
   120    C    3  dx2y2  Ryd( 5d)     0.00014       3.17868
   121    C    3  dx2y2  Ryd( 4d)     0.00004       2.70239
   122    C    3  dz2    Ryd( 3d)     0.00074       1.84515
   123    C    3  dz2    Ryd( 5d)     0.00014       3.87130
   124    C    3  dz2    Ryd( 4d)     0.00008       3.30329
   125    C    3  f(0)   Ryd( 5f)     0.00009       3.29484
   126    C    3  f(0)   Ryd( 4f)     0.00001       2.14489
   127    C    3  f(C1)  Ryd( 5f)     0.00020       3.48962
   128    C    3  f(C1)  Ryd( 4f)     0.00002       2.71204
   129    C    3  f(S1)  Ryd( 5f)     0.00009       3.55152
   130    C    3  f(S1)  Ryd( 4f)     0.00003       2.59901
   131    C    3  f(C2)  Ryd( 5f)     0.00001       3.40477
   132    C    3  f(C2)  Ryd( 4f)     0.00002       2.20840
   133    C    3  f(S2)  Ryd( 5f)     0.00001       3.51189
   134    C    3  f(S2)  Ryd( 4f)     0.00001       2.25397
   135    C    3  f(C3)  Ryd( 4f)     0.00012       4.29250
   136    C    3  f(C3)  Ryd( 5f)     0.00003       5.18583
   137    C    3  f(S3)  Ryd( 5f)     0.00006       4.05381
   138    C    3  f(S3)  Ryd( 4f)     0.00006       3.48063
 
   139    N    4  S      Cor( 1S)     1.99951     -14.56030
   140    N    4  S      Val( 2S)     1.36377      -0.58974
   141    N    4  S      Ryd( 4S)     0.00061       2.31775
   142    N    4  S      Ryd( 3S)     0.00020       1.49609
   143    N    4  S      Ryd( 5S)     0.00000       9.58645
   144    N    4  px     Val( 2p)     1.68754      -0.28143
   145    N    4  px     Ryd( 4p)     0.00616       1.12859
   146    N    4  px     Ryd( 3p)     0.00010       0.80271
   147    N    4  px     Ryd( 5p)     0.00005       4.26837
   148    N    4  py     Val( 2p)     1.18895      -0.17794
   149    N    4  py     Ryd( 4p)     0.00287       2.20159
   150    N    4  py     Ryd( 3p)     0.00010       1.07506
   151    N    4  py     Ryd( 5p)     0.00004       4.68357
   152    N    4  pz     Val( 2p)     1.13481      -0.20318
   153    N    4  pz     Ryd( 4p)     0.00058       0.92898
   154    N    4  pz     Ryd( 3p)     0.00000       0.61921
   155    N    4  pz     Ryd( 5p)     0.00001       3.36341
   156    N    4  dxy    Ryd( 3d)     0.00865       2.96452
   157    N    4  dxy    Ryd( 5d)     0.00018       4.14162
   158    N    4  dxy    Ryd( 4d)     0.00002       3.36440
   159    N    4  dxz    Ryd( 3d)     0.00482       1.11757
   160    N    4  dxz    Ryd( 5d)     0.00001       3.77233
   161    N    4  dxz    Ryd( 4d)     0.00001       2.26742
   162    N    4  dyz    Ryd( 3d)     0.00005       1.35963
   163    N    4  dyz    Ryd( 5d)     0.00014       4.01159
   164    N    4  dyz    Ryd( 4d)     0.00001       2.27418
   165    N    4  dx2y2  Ryd( 3d)     0.00214       1.67231
   166    N    4  dx2y2  Ryd( 5d)     0.00017       4.40193
   167    N    4  dx2y2  Ryd( 4d)     0.00029       2.74092
   168    N    4  dz2    Ryd( 3d)     0.00658       1.36984
   169    N    4  dz2    Ryd( 5d)     0.00003       4.08517
   170    N    4  dz2    Ryd( 4d)     0.00005       2.98417
   171    N    4  f(0)   Ryd( 5f)     0.00013       4.11524
   172    N    4  f(0)   Ryd( 4f)     0.00002       2.73795
   173    N    4  f(C1)  Ryd( 5f)     0.00004       4.37163
   174    N    4  f(C1)  Ryd( 4f)     0.00001       3.48735
   175    N    4  f(S1)  Ryd( 5f)     0.00022       4.59468
   176    N    4  f(S1)  Ryd( 4f)     0.00002       4.02950
   177    N    4  f(C2)  Ryd( 5f)     0.00004       3.93327
   178    N    4  f(C2)  Ryd( 4f)     0.00003       3.15095
   179    N    4  f(S2)  Ryd( 5f)     0.00001       4.20554
   180    N    4  f(S2)  Ryd( 4f)     0.00000       3.09238
   181    N    4  f(C3)  Ryd( 5f)     0.00023       5.08096
   182    N    4  f(C3)  Ryd( 4f)     0.00005       4.49497
   183    N    4  f(S3)  Ryd( 5f)     0.00002       4.74693
   184    N    4  f(S3)  Ryd( 4f)     0.00017       3.62228
 
   185    C    5  S      Cor( 1S)     1.99932     -10.44453
   186    C    5  S      Val( 2S)     0.93669      -0.21566
   187    C    5  S      Ryd( 4S)     0.00251       1.72975
   188    C    5  S      Ryd( 5S)     0.00010       1.93208
   189    C    5  S      Ryd( 3S)     0.00004       1.71616
   190    C    5  px     Val( 2p)     1.03340      -0.06574
   191    C    5  px     Ryd( 5p)     0.00664       1.56897
   192    C    5  px     Ryd( 4p)     0.00026       1.32720
   193    C    5  px     Ryd( 3p)     0.00003       1.30359
   194    C    5  py     Val( 2p)     1.04005      -0.07070
   195    C    5  py     Ryd( 4p)     0.00568       1.52328
   196    C    5  py     Ryd( 3p)     0.00011       1.48651
   197    C    5  py     Ryd( 5p)     0.00006       1.54823
   198    C    5  pz     Val( 2p)     0.92296      -0.13194
   199    C    5  pz     Ryd( 4p)     0.00109       0.99271
   200    C    5  pz     Ryd( 5p)     0.00002       1.12166
   201    C    5  pz     Ryd( 3p)     0.00003       0.80806
   202    C    5  dxy    Ryd( 3d)     0.00207       2.17588
   203    C    5  dxy    Ryd( 5d)     0.00026       3.52614
   204    C    5  dxy    Ryd( 4d)     0.00007       2.91899
   205    C    5  dxz    Ryd( 3d)     0.00033       1.32923
   206    C    5  dxz    Ryd( 5d)     0.00007       2.59979
   207    C    5  dxz    Ryd( 4d)     0.00003       2.00636
   208    C    5  dyz    Ryd( 3d)     0.00027       1.31806
   209    C    5  dyz    Ryd( 5d)     0.00016       2.67076
   210    C    5  dyz    Ryd( 4d)     0.00003       1.85016
   211    C    5  dx2y2  Ryd( 3d)     0.00272       2.43256
   212    C    5  dx2y2  Ryd( 5d)     0.00012       3.19779
   213    C    5  dx2y2  Ryd( 4d)     0.00004       2.74274
   214    C    5  dz2    Ryd( 3d)     0.00075       1.84129
   215    C    5  dz2    Ryd( 5d)     0.00013       3.87598
   216    C    5  dz2    Ryd( 4d)     0.00009       3.30996
   217    C    5  f(0)   Ryd( 5f)     0.00009       3.30009
   218    C    5  f(0)   Ryd( 4f)     0.00001       2.13854
   219    C    5  f(C1)  Ryd( 5f)     0.00019       3.49521
   220    C    5  f(C1)  Ryd( 4f)     0.00002       2.73139
   221    C    5  f(S1)  Ryd( 5f)     0.00010       3.56011
   222    C    5  f(S1)  Ryd( 4f)     0.00003       2.58014
   223    C    5  f(C2)  Ryd( 5f)     0.00001       3.40795
   224    C    5  f(C2)  Ryd( 4f)     0.00002       2.21022
   225    C    5  f(S2)  Ryd( 5f)     0.00001       3.51497
   226    C    5  f(S2)  Ryd( 4f)     0.00001       2.23843
   227    C    5  f(C3)  Ryd( 4f)     0.00012       4.33196
   228    C    5  f(C3)  Ryd( 5f)     0.00003       5.31982
   229    C    5  f(S3)  Ryd( 5f)     0.00006       4.03048
   230    C    5  f(S3)  Ryd( 4f)     0.00006       3.41054
 
   231    C    6  S      Cor( 1S)     1.99919     -10.41479
   232    C    6  S      Val( 2S)     0.98099      -0.23854
   233    C    6  S      Ryd( 4S)     0.00104       1.76938
   234    C    6  S      Ryd( 5S)     0.00008       3.43982
   235    C    6  S      Ryd( 3S)     0.00003       1.65969
   236    C    6  px     Val( 2p)     1.09188      -0.09196
   237    C    6  px     Ryd( 4p)     0.00323       1.76431
   238    C    6  px     Ryd( 3p)     0.00013       1.16172
   239    C    6  px     Ryd( 5p)     0.00008       1.97933
   240    C    6  py     Val( 2p)     1.14492      -0.09269
   241    C    6  py     Ryd( 4p)     0.00352       1.64588
   242    C    6  py     Ryd( 3p)     0.00005       1.28383
   243    C    6  py     Ryd( 5p)     0.00007       1.91489
   244    C    6  pz     Val( 2p)     0.97660      -0.14060
   245    C    6  pz     Ryd( 4p)     0.00073       1.01285
   246    C    6  pz     Ryd( 3p)     0.00002       0.97730
   247    C    6  pz     Ryd( 5p)     0.00004       1.32285
   248    C    6  dxy    Ryd( 3d)     0.00158       2.49690
   249    C    6  dxy    Ryd( 5d)     0.00014       3.59242
   250    C    6  dxy    Ryd( 4d)     0.00005       2.85713
   251    C    6  dxz    Ryd( 3d)     0.00061       1.40917
   252    C    6  dxz    Ryd( 5d)     0.00002       2.86247
   253    C    6  dxz    Ryd( 4d)     0.00002       1.78160
   254    C    6  dyz    Ryd( 3d)     0.00024       1.37808
   255    C    6  dyz    Ryd( 5d)     0.00006       2.94001
   256    C    6  dyz    Ryd( 4d)     0.00003       1.46471
   257    C    6  dx2y2  Ryd( 4d)     0.00179       3.12092
   258    C    6  dx2y2  Ryd( 5d)     0.00024       3.84755
   259    C    6  dx2y2  Ryd( 3d)     0.00006       2.12768
   260    C    6  dz2    Ryd( 3d)     0.00091       1.74167
   261    C    6  dz2    Ryd( 4d)     0.00010       3.56525
   262    C    6  dz2    Ryd( 5d)     0.00009       3.58680
   263    C    6  f(0)   Ryd( 5f)     0.00011       3.47820
   264    C    6  f(0)   Ryd( 4f)     0.00003       2.05894
   265    C    6  f(C1)  Ryd( 5f)     0.00028       3.73197
   266    C    6  f(C1)  Ryd( 4f)     0.00003       2.97275
   267    C    6  f(S1)  Ryd( 5f)     0.00018       3.68060
   268    C    6  f(S1)  Ryd( 4f)     0.00002       2.66197
   269    C    6  f(C2)  Ryd( 5f)     0.00001       3.57200
   270    C    6  f(C2)  Ryd( 4f)     0.00001       2.17655
   271    C    6  f(S2)  Ryd( 5f)     0.00001       3.60409
   272    C    6  f(S2)  Ryd( 4f)     0.00001       2.03122
   273    C    6  f(C3)  Ryd( 4f)     0.00018       4.16845
   274    C    6  f(C3)  Ryd( 5f)     0.00003       5.63872
   275    C    6  f(S3)  Ryd( 5f)     0.00003       4.28674
   276    C    6  f(S3)  Ryd( 4f)     0.00012       3.63871
 
   277    C    7  S      Cor( 1S)     1.99938     -10.57497
   278    C    7  S      Val( 2S)     0.79072      -0.15963
   279    C    7  S      Ryd( 4S)     0.00421       1.88089
   280    C    7  S      Ryd( 3S)     0.00018       1.70527
   281    C    7  S      Ryd( 5S)     0.00007       2.23995
   282    C    7  px     Val( 2p)     0.91653      -0.07767
   283    C    7  px     Ryd( 5p)     0.00568       1.53797
   284    C    7  px     Ryd( 3p)     0.00021       1.09810
   285    C    7  px     Ryd( 4p)     0.00001       1.44880
   286    C    7  py     Val( 2p)     0.72201      -0.02557
   287    C    7  py     Ryd( 4p)     0.01399       1.57758
   288    C    7  py     Ryd( 3p)     0.00007       1.12306
   289    C    7  py     Ryd( 5p)     0.00009       1.64895
   290    C    7  pz     Val( 2p)     0.73914      -0.13858
   291    C    7  pz     Ryd( 5p)     0.00045       1.11494
   292    C    7  pz     Ryd( 3p)     0.00008       0.67178
   293    C    7  pz     Ryd( 4p)     0.00002       0.99567
   294    C    7  dxy    Ryd( 4d)     0.00060       3.23486
   295    C    7  dxy    Ryd( 3d)     0.00029       2.20072
   296    C    7  dxy    Ryd( 5d)     0.00011       3.87825
   297    C    7  dxz    Ryd( 4d)     0.00089       2.49644
   298    C    7  dxz    Ryd( 3d)     0.00011       1.41931
   299    C    7  dxz    Ryd( 5d)     0.00004       2.54336
   300    C    7  dyz    Ryd( 4d)     0.00164       2.66944
   301    C    7  dyz    Ryd( 3d)     0.00006       1.54631
   302    C    7  dyz    Ryd( 5d)     0.00006       2.73518
   303    C    7  dx2y2  Ryd( 4d)     0.00215       3.24583
   304    C    7  dx2y2  Ryd( 3d)     0.00014       1.86219
   305    C    7  dx2y2  Ryd( 5d)     0.00008       3.71615
   306    C    7  dz2    Ryd( 5d)     0.00025       3.57525
   307    C    7  dz2    Ryd( 3d)     0.00057       1.94944
   308    C    7  dz2    Ryd( 4d)     0.00009       3.19710
   309    C    7  f(0)   Ryd( 5f)     0.00010       3.17487
   310    C    7  f(0)   Ryd( 4f)     0.00003       2.66949
   311    C    7  f(C1)  Ryd( 5f)     0.00012       3.38967
   312    C    7  f(C1)  Ryd( 4f)     0.00002       3.16686
   313    C    7  f(S1)  Ryd( 5f)     0.00008       3.47401
   314    C    7  f(S1)  Ryd( 4f)     0.00004       3.43768
   315    C    7  f(C2)  Ryd( 5f)     0.00001       3.13687
   316    C    7  f(C2)  Ryd( 4f)     0.00005       2.81018
   317    C    7  f(S2)  Ryd( 5f)     0.00001       3.35167
   318    C    7  f(S2)  Ryd( 4f)     0.00000       2.97811
   319    C    7  f(C3)  Ryd( 4f)     0.00009       4.74442
   320    C    7  f(C3)  Ryd( 5f)     0.00004       7.94354
   321    C    7  f(S3)  Ryd( 4f)     0.00010       4.14836
   322    C    7  f(S3)  Ryd( 5f)     0.00004       4.22090
 
   323    O    8  S      Cor( 1S)     1.99977     -19.34458
   324    O    8  S      Val( 2S)     1.70235      -1.02131
   325    O    8  S      Ryd( 4S)     0.00055       2.90591
   326    O    8  S      Ryd( 3S)     0.00022       1.77103
   327    O    8  S      Ryd( 5S)     0.00001       8.42387
   328    O    8  px     Val( 2p)     1.77199      -0.35801
   329    O    8  px     Ryd( 4p)     0.00156       1.31672
   330    O    8  px     Ryd( 3p)     0.00011       0.77808
   331    O    8  px     Ryd( 5p)     0.00004       4.67171
   332    O    8  py     Val( 2p)     1.63544      -0.36032
   333    O    8  py     Ryd( 4p)     0.00128       1.45228
   334    O    8  py     Ryd( 3p)     0.00009       0.72294
   335    O    8  py     Ryd( 5p)     0.00006       5.21535
   336    O    8  pz     Val( 2p)     1.44880      -0.30621
   337    O    8  pz     Ryd( 4p)     0.00051       1.00062
   338    O    8  pz     Ryd( 3p)     0.00002       0.55783
   339    O    8  pz     Ryd( 5p)     0.00001       4.14737
   340    O    8  dxy    Ryd( 3d)     0.00816       2.00150
   341    O    8  dxy    Ryd( 4d)     0.00011       3.17080
   342    O    8  dxy    Ryd( 5d)     0.00003       6.55989
   343    O    8  dxz    Ryd( 3d)     0.00205       1.41855
   344    O    8  dxz    Ryd( 4d)     0.00001       1.67901
   345    O    8  dxz    Ryd( 5d)     0.00001       6.41057
   346    O    8  dyz    Ryd( 3d)     0.00518       1.51004
   347    O    8  dyz    Ryd( 4d)     0.00004       1.72270
   348    O    8  dyz    Ryd( 5d)     0.00002       6.37381
   349    O    8  dx2y2  Ryd( 3d)     0.00646       1.79631
   350    O    8  dx2y2  Ryd( 4d)     0.00008       2.26072
   351    O    8  dx2y2  Ryd( 5d)     0.00005       6.49389
   352    O    8  dz2    Ryd( 3d)     0.00283       1.60148
   353    O    8  dz2    Ryd( 4d)     0.00009       2.48804
   354    O    8  dz2    Ryd( 5d)     0.00000       6.48484
   355    O    8  f(0)   Ryd( 4f)     0.00014       3.07613
   356    O    8  f(0)   Ryd( 5f)     0.00000       5.48486
   357    O    8  f(C1)  Ryd( 4f)     0.00007       3.20610
   358    O    8  f(C1)  Ryd( 5f)     0.00001       5.56755
   359    O    8  f(S1)  Ryd( 4f)     0.00011       3.51267
   360    O    8  f(S1)  Ryd( 5f)     0.00001       5.74261
   361    O    8  f(C2)  Ryd( 4f)     0.00009       3.04033
   362    O    8  f(C2)  Ryd( 5f)     0.00001       5.69913
   363    O    8  f(S2)  Ryd( 4f)     0.00030       3.12199
   364    O    8  f(S2)  Ryd( 5f)     0.00001       5.60001
   365    O    8  f(C3)  Ryd( 4f)     0.00039       4.05805
   366    O    8  f(C3)  Ryd( 5f)     0.00001       6.02985
   367    O    8  f(S3)  Ryd( 4f)     0.00049       3.53413
   368    O    8  f(S3)  Ryd( 5f)     0.00003       5.90620
 
   369    O    9  S      Cor( 1S)     1.99978     -19.47350
   370    O    9  S      Val( 2S)     1.67350      -1.05380
   371    O    9  S      Ryd( 3S)     0.00064       1.71582
   372    O    9  S      Ryd( 4S)     0.00005       2.58407
   373    O    9  S      Ryd( 5S)     0.00002       9.29548
   374    O    9  px     Val( 2p)     1.51358      -0.38566
   375    O    9  px     Ryd( 4p)     0.00073       1.16289
   376    O    9  px     Ryd( 3p)     0.00007       0.93593
   377    O    9  px     Ryd( 5p)     0.00005       5.11025
   378    O    9  py     Val( 2p)     1.65383      -0.42076
   379    O    9  py     Ryd( 4p)     0.00086       1.05047
   380    O    9  py     Ryd( 3p)     0.00009       0.70486
   381    O    9  py     Ryd( 5p)     0.00009       4.94199
   382    O    9  pz     Val( 2p)     1.83312      -0.43026
   383    O    9  pz     Ryd( 4p)     0.00111       0.83334
   384    O    9  pz     Ryd( 3p)     0.00001       0.63041
   385    O    9  pz     Ryd( 5p)     0.00001       4.01902
   386    O    9  dxy    Ryd( 3d)     0.00495       1.81228
   387    O    9  dxy    Ryd( 4d)     0.00014       2.58668
   388    O    9  dxy    Ryd( 5d)     0.00004       6.66976
   389    O    9  dxz    Ryd( 3d)     0.00059       1.17524
   390    O    9  dxz    Ryd( 4d)     0.00006       1.93107
   391    O    9  dxz    Ryd( 5d)     0.00001       6.39104
   392    O    9  dyz    Ryd( 3d)     0.00453       1.32504
   393    O    9  dyz    Ryd( 4d)     0.00002       1.72364
   394    O    9  dyz    Ryd( 5d)     0.00004       6.41651
   395    O    9  dx2y2  Ryd( 3d)     0.00557       1.91604
   396    O    9  dx2y2  Ryd( 4d)     0.00009       2.14713
   397    O    9  dx2y2  Ryd( 5d)     0.00006       6.89435
   398    O    9  dz2    Ryd( 3d)     0.00303       1.49386
   399    O    9  dz2    Ryd( 4d)     0.00016       2.41324
   400    O    9  dz2    Ryd( 5d)     0.00001       6.64600
   401    O    9  f(0)   Ryd( 4f)     0.00056       2.73914
   402    O    9  f(0)   Ryd( 5f)     0.00001       5.93785
   403    O    9  f(C1)  Ryd( 4f)     0.00022       3.32606
   404    O    9  f(C1)  Ryd( 5f)     0.00001       6.21051
   405    O    9  f(S1)  Ryd( 4f)     0.00017       3.27027
   406    O    9  f(S1)  Ryd( 5f)     0.00001       6.08300
   407    O    9  f(C2)  Ryd( 4f)     0.00002       2.83341
   408    O    9  f(C2)  Ryd( 5f)     0.00001       6.08720
   409    O    9  f(S2)  Ryd( 4f)     0.00012       2.77222
   410    O    9  f(S2)  Ryd( 5f)     0.00001       5.96059
   411    O    9  f(C3)  Ryd( 4f)     0.00015       4.42627
   412    O    9  f(C3)  Ryd( 5f)     0.00006       6.56522
   413    O    9  f(S3)  Ryd( 4f)     0.00005       3.65926
   414    O    9  f(S3)  Ryd( 5f)     0.00002       6.39058
 
   415    H   10  S      Val( 1S)     0.75874       0.05570
   416    H   10  S      Ryd( 4S)     0.00044       1.95093
   417    H   10  S      Ryd( 2S)     0.00017       0.63884
   418    H   10  S      Ryd( 3S)     0.00005       1.59907
   419    H   10  px     Ryd( 2p)     0.00052       0.97503
   420    H   10  px     Ryd( 4p)     0.00009       4.13811
   421    H   10  px     Ryd( 3p)     0.00008       2.64469
   422    H   10  py     Ryd( 2p)     0.00077       0.83084
   423    H   10  py     Ryd( 4p)     0.00017       4.40975
   424    H   10  py     Ryd( 3p)     0.00006       3.91690
   425    H   10  pz     Ryd( 2p)     0.00016       0.60692
   426    H   10  pz     Ryd( 4p)     0.00004       3.91979
   427    H   10  pz     Ryd( 3p)     0.00009       1.73201
   428    H   10  dxy    Ryd( 3d)     0.00009       2.32022
   429    H   10  dxy    Ryd( 4d)     0.00002       4.22188
   430    H   10  dxz    Ryd( 3d)     0.00001       1.78204
   431    H   10  dxz    Ryd( 4d)     0.00000       3.34044
   432    H   10  dyz    Ryd( 3d)     0.00001       1.88169
   433    H   10  dyz    Ryd( 4d)     0.00001       3.66389
   434    H   10  dx2y2  Ryd( 3d)     0.00007       2.32359
   435    H   10  dx2y2  Ryd( 4d)     0.00004       4.26030
   436    H   10  dz2    Ryd( 3d)     0.00004       2.25547
   437    H   10  dz2    Ryd( 4d)     0.00003       3.67277
 
   438    H   11  S      Val( 1S)     0.80395       0.03191
   439    H   11  S      Ryd( 4S)     0.00040       1.79874
   440    H   11  S      Ryd( 2S)     0.00011       0.72829
   441    H   11  S      Ryd( 3S)     0.00003       1.38393
   442    H   11  px     Ryd( 2p)     0.00057       0.99592
   443    H   11  px     Ryd( 4p)     0.00008       3.82447
   444    H   11  px     Ryd( 3p)     0.00005       2.82835
   445    H   11  py     Ryd( 2p)     0.00069       1.06620
   446    H   11  py     Ryd( 4p)     0.00015       3.89777
   447    H   11  py     Ryd( 3p)     0.00002       3.63066
   448    H   11  pz     Ryd( 2p)     0.00019       0.82945
   449    H   11  pz     Ryd( 4p)     0.00005       3.68532
   450    H   11  pz     Ryd( 3p)     0.00003       1.56167
   451    H   11  dxy    Ryd( 3d)     0.00016       2.34289
   452    H   11  dxy    Ryd( 4d)     0.00003       4.14278
   453    H   11  dxz    Ryd( 3d)     0.00001       1.93471
   454    H   11  dxz    Ryd( 4d)     0.00000       3.23739
   455    H   11  dyz    Ryd( 3d)     0.00001       2.03364
   456    H   11  dyz    Ryd( 4d)     0.00001       3.41140
   457    H   11  dx2y2  Ryd( 3d)     0.00004       2.24848
   458    H   11  dx2y2  Ryd( 4d)     0.00002       4.09482
   459    H   11  dz2    Ryd( 3d)     0.00003       2.13706
   460    H   11  dz2    Ryd( 4d)     0.00003       3.52422
 
   461    H   12  S      Val( 1S)     0.80491       0.03038
   462    H   12  S      Ryd( 4S)     0.00041       1.79896
   463    H   12  S      Ryd( 2S)     0.00012       0.74515
   464    H   12  S      Ryd( 3S)     0.00003       1.39004
   465    H   12  px     Ryd( 2p)     0.00057       0.99670
   466    H   12  px     Ryd( 4p)     0.00007       3.82865
   467    H   12  px     Ryd( 3p)     0.00006       2.66795
   468    H   12  py     Ryd( 2p)     0.00072       1.05702
   469    H   12  py     Ryd( 4p)     0.00016       3.92988
   470    H   12  py     Ryd( 3p)     0.00002       3.77068
   471    H   12  pz     Ryd( 2p)     0.00019       0.82527
   472    H   12  pz     Ryd( 4p)     0.00005       3.69607
   473    H   12  pz     Ryd( 3p)     0.00003       1.55326
   474    H   12  dxy    Ryd( 3d)     0.00014       2.35416
   475    H   12  dxy    Ryd( 4d)     0.00003       4.13063
   476    H   12  dxz    Ryd( 3d)     0.00001       1.93179
   477    H   12  dxz    Ryd( 4d)     0.00000       3.18864
   478    H   12  dyz    Ryd( 3d)     0.00001       2.06124
   479    H   12  dyz    Ryd( 4d)     0.00001       3.43045
   480    H   12  dx2y2  Ryd( 3d)     0.00005       2.26881
   481    H   12  dx2y2  Ryd( 4d)     0.00002       4.08876
   482    H   12  dz2    Ryd( 3d)     0.00003       2.14729
   483    H   12  dz2    Ryd( 4d)     0.00003       3.51304
 
   484    H   13  S      Val( 1S)     0.76390       0.04940
   485    H   13  S      Ryd( 4S)     0.00043       1.89389
   486    H   13  S      Ryd( 2S)     0.00016       0.72131
   487    H   13  S      Ryd( 3S)     0.00004       1.60123
   488    H   13  px     Ryd( 2p)     0.00057       0.95721
   489    H   13  px     Ryd( 4p)     0.00010       4.17978
   490    H   13  px     Ryd( 3p)     0.00008       2.73582
   491    H   13  py     Ryd( 2p)     0.00072       0.79463
   492    H   13  py     Ryd( 4p)     0.00018       4.39731
   493    H   13  py     Ryd( 3p)     0.00006       3.84702
   494    H   13  pz     Ryd( 2p)     0.00022       0.56812
   495    H   13  pz     Ryd( 4p)     0.00004       3.95321
   496    H   13  pz     Ryd( 3p)     0.00009       1.70725
   497    H   13  dxy    Ryd( 3d)     0.00010       2.35482
   498    H   13  dxy    Ryd( 4d)     0.00003       4.26686
   499    H   13  dxz    Ryd( 3d)     0.00001       1.77976
   500    H   13  dxz    Ryd( 4d)     0.00000       3.39541
   501    H   13  dyz    Ryd( 3d)     0.00002       1.84330
   502    H   13  dyz    Ryd( 4d)     0.00001       3.67901
   503    H   13  dx2y2  Ryd( 3d)     0.00005       2.30790
   504    H   13  dx2y2  Ryd( 4d)     0.00004       4.27538
   505    H   13  dz2    Ryd( 3d)     0.00004       2.25808
   506    H   13  dz2    Ryd( 4d)     0.00003       3.70276
 
   507    H   14  S      Val( 1S)     0.49277       0.11687
   508    H   14  S      Ryd( 4S)     0.00098       1.81237
   509    H   14  S      Ryd( 2S)     0.00017       0.66585
   510    H   14  S      Ryd( 3S)     0.00014       1.58056
   511    H   14  px     Ryd( 2p)     0.00027       2.64426
   512    H   14  px     Ryd( 4p)     0.00035       3.77076
   513    H   14  px     Ryd( 3p)     0.00003       3.10111
   514    H   14  py     Ryd( 2p)     0.00023       1.80737
   515    H   14  py     Ryd( 4p)     0.00003       3.03720
   516    H   14  py     Ryd( 3p)     0.00002       2.93449
   517    H   14  pz     Ryd( 2p)     0.00053       1.54659
   518    H   14  pz     Ryd( 4p)     0.00004       2.80121
   519    H   14  pz     Ryd( 3p)     0.00001       2.68347
   520    H   14  dxy    Ryd( 3d)     0.00005       1.25233
   521    H   14  dxy    Ryd( 4d)     0.00001       4.38222
   522    H   14  dxz    Ryd( 3d)     0.00010       1.10645
   523    H   14  dxz    Ryd( 4d)     0.00000       4.26018
   524    H   14  dyz    Ryd( 3d)     0.00004       1.11914
   525    H   14  dyz    Ryd( 4d)     0.00000       3.78732
   526    H   14  dx2y2  Ryd( 3d)     0.00007       1.82886
   527    H   14  dx2y2  Ryd( 4d)     0.00001       4.64360
   528    H   14  dz2    Ryd( 3d)     0.00011       1.61168
   529    H   14  dz2    Ryd( 4d)     0.00001       4.05467

 WARNING:  Population inversion found on atom  C    1
           Population inversion found on atom  C    2
           Population inversion found on atom  C    3
           Population inversion found on atom  N    4
           Population inversion found on atom  C    5
           Population inversion found on atom  C    6
           Population inversion found on atom  C    7
           Population inversion found on atom  O    8
           Population inversion found on atom  O    9
           Population inversion found on atom  H   10
           Population inversion found on atom  H   11
           Population inversion found on atom  H   12
           Population inversion found on atom  H   13
           Population inversion found on atom  H   14


 Summary of Natural Population Analysis:                  
                                                          
                                       Natural Population 
                Natural  -----------------------------------------------
    Atom  No    Charge         Core      Valence    Rydberg      Total
 -----------------------------------------------------------------------
      C    1   -0.13996      1.99902     4.11315    0.02780     6.13996
      C    2   -0.19929      1.99919     4.18395    0.01615     6.19929
      C    3    0.04271      1.99932     3.93368    0.02429     5.95729
      N    4   -0.40944      1.99951     5.37507    0.03485     7.40944
      C    5    0.04309      1.99932     3.93309    0.02449     5.95691
      C    6   -0.20962      1.99919     4.19440    0.01603     6.20962
      C    7    0.79936      1.99938     3.16840    0.03286     5.20064
      O    8   -0.58964      1.99977     6.55858    0.03128     8.58964
      O    9   -0.69829      1.99978     6.67403    0.02448     8.69829
      H   10    0.23829      0.00000     0.75874    0.00297     0.76171
      H   11    0.19334      0.00000     0.80395    0.00271     0.80666
      H   12    0.19233      0.00000     0.80491    0.00276     0.80767
      H   13    0.23308      0.00000     0.76390    0.00302     0.76692
      H   14    0.50404      0.00000     0.49277    0.00319     0.49596
 =======================================================================
   * Total *    0.00000     17.99449    45.75864    0.24687    64.00000

                                 Natural Population      
 --------------------------------------------------------
   Core                      17.99449 ( 99.9694% of  18)
   Valence                   45.75864 ( 99.4753% of  46)
   Natural Minimal Basis     63.75313 ( 99.6143% of  64)
   Natural Rydberg Basis      0.24687 (  0.3857% of  64)
 --------------------------------------------------------

    Atom  No          Natural Electron Configuration
 ----------------------------------------------------------------------------
      C    1      [core]2S( 0.94)2p( 3.17)3d( 0.01)4p( 0.01)4f( 0.01)
      C    2      [core]2S( 0.98)2p( 3.20)4p( 0.01)
      C    3      [core]2S( 0.94)2p( 3.00)3d( 0.01)4p( 0.01)5p( 0.01)
      N    4      [core]2S( 1.36)2p( 4.01)3d( 0.02)4p( 0.01)
      C    5      [core]2S( 0.94)2p( 3.00)3d( 0.01)4p( 0.01)5p( 0.01)
      C    6      [core]2S( 0.98)2p( 3.21)4p( 0.01)
      C    7      [core]2S( 0.79)2p( 2.38)4p( 0.01)4d( 0.01)5p( 0.01)
      O    8      [core]2S( 1.70)2p( 4.86)3d( 0.02)
      O    9      [core]2S( 1.67)2p( 5.00)3d( 0.02)
      H   10            1S( 0.76)
      H   11            1S( 0.80)
      H   12            1S( 0.80)
      H   13            1S( 0.76)
      H   14            1S( 0.49)


 NATURAL BOND ORBITAL ANALYSIS:

                       Occupancies       Lewis Structure    Low   High
           Occ.    -------------------  -----------------   occ   occ
  Cycle   Thresh.   Lewis   Non-Lewis     CR  BD  3C  LP    (L)   (NL)   Dev
 =============================================================================
   1(1)    1.90    60.11487   3.88513      9  16   0   7     8      6    0.44
   2(2)    1.90    60.11487   3.88513      9  16   0   7     8      6    0.44
   3(1)    1.80    60.46530   3.53470      9  15   0   8     3      4    0.44
   4(2)    1.80    60.46530   3.53470      9  15   0   8     3      4    0.44
   5(1)    1.70    61.02832   2.97168      9  16   0   7     2      4    0.43
   6(2)    1.70    61.02832   2.97168      9  16   0   7     2      4    0.43
   7(1)    1.60    62.28588   1.71412      9  18   0   5     0      4    0.43
   8(2)    1.60    62.27303   1.72697      9  18   0   5     0      4    0.44
   9(3)    1.60    62.28588   1.71412      9  18   0   5     0      4    0.43
  10(1)    1.50    61.79797   2.20203      9  17   0   6     0      5    0.73
  11(2)    1.50    61.79797   2.20203      9  17   0   6     0      5    0.73
  12(1)    1.60    62.28588   1.71412      9  18   0   5     0      4    0.43
 -----------------------------------------------------------------------------

 Structure accepted: RESONANCE keyword permits strongly delocalized structure

 --------------------------------------------------------
   Core                     17.99450 ( 99.969% of  18)
   Valence Lewis            44.29137 ( 96.286% of  46)
  ==================       ============================
   Total Lewis              62.28588 ( 97.322% of  64)
  -----------------------------------------------------
   Valence non-Lewis         1.58975 (  2.484% of  64)
   Rydberg non-Lewis         0.12438 (  0.194% of  64)
  ==================       ============================
   Total non-Lewis           1.71412 (  2.678% of  64)
 --------------------------------------------------------


       (Occupancy)   Bond orbital/ Coefficients/ Hybrids
 ---------------------------------------------------------------------------------
     1. (1.97666) BD ( 1) C   1 - C   2  
                ( 51.35%)   0.7166* C   1 s( 35.21%)p 1.84( 64.66%)d 0.00(  0.08%)
                                                  f 0.00(  0.06%)
                                           -0.0001  0.5933 -0.0081  0.0007 -0.0003
                                           -0.4081 -0.0082 -0.0023  0.0005  0.6926
                                           -0.0153  0.0018 -0.0008  0.0002  0.0000
                                            0.0000  0.0000 -0.0169 -0.0092 -0.0014
                                            0.0000  0.0000  0.0000  0.0000  0.0000
                                            0.0000 -0.0081 -0.0022  0.0020 -0.0171
                                           -0.0019  0.0031  0.0000  0.0000  0.0078
                                            0.0070 -0.0129 -0.0100  0.0000  0.0000
                                            0.0000  0.0000  0.0123  0.0045  0.0063
                                            0.0013
                ( 48.65%)   0.6975* C   2 s( 34.82%)p 1.87( 65.05%)d 0.00(  0.11%)
                                                  f 0.00(  0.02%)
                                            0.0001  0.5900 -0.0071  0.0018 -0.0008
                                            0.4584 -0.0213 -0.0022  0.0031 -0.6633
                                           -0.0018 -0.0001  0.0007 -0.0003  0.0000
                                            0.0000  0.0000 -0.0220 -0.0065  0.0007
                                            0.0000  0.0000  0.0000  0.0000  0.0000
                                            0.0000 -0.0096 -0.0079 -0.0009 -0.0210
                                           -0.0023 -0.0003  0.0000  0.0000 -0.0069
                                            0.0014  0.0098  0.0013  0.0000  0.0000
                                            0.0000  0.0000 -0.0064 -0.0008 -0.0029
                                            0.0059
     2. (1.97822) BD ( 1) C   1 - C   6  
                ( 51.27%)   0.7160* C   1 s( 35.65%)p 1.80( 64.21%)d 0.00(  0.08%)
                                                  f 0.00(  0.06%)
                                           -0.0001  0.5970 -0.0090  0.0004 -0.0001
                                           -0.3528 -0.0100 -0.0015  0.0004 -0.7193
                                            0.0139 -0.0014  0.0007 -0.0002  0.0000
                                            0.0000  0.0000  0.0159  0.0087  0.0016
                                            0.0000  0.0000  0.0000  0.0000  0.0000
                                            0.0000 -0.0097 -0.0037  0.0015 -0.0177
                                           -0.0017  0.0031  0.0000  0.0000  0.0073
                                            0.0059  0.0137  0.0102  0.0000  0.0000
                                            0.0000  0.0000  0.0146  0.0040 -0.0032
                                           -0.0004
                ( 48.73%)   0.6981* C   6 s( 34.96%)p 1.86( 64.91%)d 0.00(  0.11%)
                                                  f 0.00(  0.02%)
                                            0.0000  0.5912 -0.0066  0.0019 -0.0006
                                            0.4203 -0.0210  0.0031 -0.0023  0.6870
                                            0.0002 -0.0007  0.0000  0.0003  0.0000
                                            0.0000  0.0000  0.0213  0.0052 -0.0009
                                            0.0000  0.0000  0.0000  0.0000  0.0000
                                            0.0000 -0.0117 -0.0089 -0.0003 -0.0210
                                           -0.0026 -0.0006  0.0000  0.0000 -0.0066
                                            0.0018 -0.0102 -0.0010  0.0000  0.0000
                                            0.0000  0.0000 -0.0068  0.0006  0.0013
                                           -0.0056
     3. (1.64568) BD ( 2) C   1 - C   6  
                ( 51.61%)   0.7184* C   1 s(  0.00%)p 1.00( 99.89%)d 0.00(  0.03%)
                                                  f 0.00(  0.09%)
                                            0.0000  0.0000  0.0000  0.0000  0.0000
                                            0.0000  0.0000  0.0000  0.0000 -0.0003
                                            0.0000  0.0000  0.0000  0.9994 -0.0009
                                           -0.0075  0.0010  0.0000  0.0000  0.0000
                                            0.0025 -0.0094 -0.0011 -0.0123 -0.0016
                                           -0.0017  0.0000  0.0000  0.0000  0.0000
                                            0.0000  0.0000 -0.0211 -0.0096  0.0000
                                            0.0000  0.0000  0.0000  0.0165 -0.0032
                                           -0.0066  0.0024  0.0000  0.0000  0.0000
                                            0.0000
                ( 48.39%)   0.6956* C   6 s(  0.00%)p 1.00( 99.96%)d 0.00(  0.03%)
                                                  f 0.00(  0.02%)
                                            0.0000  0.0000  0.0000  0.0000  0.0000
                                            0.0000  0.0000  0.0000  0.0000 -0.0004
                                            0.0000  0.0000  0.0000  0.9998  0.0009
                                           -0.0001  0.0047  0.0000  0.0000  0.0000
                                           -0.0026  0.0016  0.0043  0.0147  0.0066
                                            0.0015  0.0000  0.0000  0.0000  0.0000
                                            0.0000  0.0000 -0.0103 -0.0049  0.0000
                                            0.0000  0.0000  0.0000  0.0010  0.0009
                                            0.0029 -0.0033  0.0000  0.0000  0.0000
                                            0.0000
     4. (1.97806) BD ( 1) C   1 - C   7  
                ( 51.47%)   0.7174* C   1 s( 29.05%)p 2.44( 70.75%)d 0.01(  0.16%)
                                                  f 0.00(  0.05%)
                                           -0.0001  0.5389  0.0119 -0.0010  0.0000
                                            0.8402  0.0195  0.0037 -0.0007  0.0343
                                            0.0007  0.0000  0.0000  0.0000  0.0000
                                            0.0000  0.0000  0.0025  0.0006 -0.0004
                                            0.0000  0.0000  0.0000  0.0000  0.0000
                                            0.0000  0.0387  0.0017  0.0009  0.0007
                                           -0.0078 -0.0016  0.0000  0.0000 -0.0080
                                           -0.0146  0.0003 -0.0006  0.0000  0.0000
                                            0.0000  0.0000  0.0128  0.0046  0.0008
                                            0.0008
                ( 48.53%)   0.6967* C   7 s( 37.54%)p 1.66( 62.39%)d 0.00(  0.05%)
                                                  f 0.00(  0.01%)
                                            0.0001  0.6120  0.0293  0.0007  0.0032
                                           -0.7891 -0.0146  0.0014  0.0001 -0.0327
                                           -0.0008 -0.0003  0.0001  0.0000  0.0000
                                            0.0000  0.0000  0.0028 -0.0029 -0.0007
                                            0.0000  0.0000  0.0000  0.0000  0.0000
                                            0.0000  0.0187 -0.0006  0.0002  0.0001
[...]
 ! A19   A(8,7,9)              122.8371         -DE/DX =   -0.0001              !
 ! A20   A(7,9,14)             107.1438         -DE/DX =    0.0                 !
 ! D1    D(6,1,2,3)             -0.0002         -DE/DX =    0.0                 !
 ! D2    D(6,1,2,10)           180.0004         -DE/DX =    0.0                 !
 ! D3    D(7,1,2,3)            179.9986         -DE/DX =    0.0                 !
 ! D4    D(7,1,2,10)            -0.0008         -DE/DX =    0.0                 !
 ! D5    D(2,1,6,5)              0.0006         -DE/DX =    0.0                 !
 ! D6    D(2,1,6,13)           180.0003         -DE/DX =    0.0                 !
 ! D7    D(7,1,6,5)           -179.9981         -DE/DX =    0.0                 !
 ! D8    D(7,1,6,13)             0.0016         -DE/DX =    0.0                 !
 ! D9    D(2,1,7,8)              0.0126         -DE/DX =    0.0                 !
 ! D10   D(2,1,7,9)           -180.0225         -DE/DX =    0.0                 !
 ! D11   D(6,1,7,8)           -179.9887         -DE/DX =    0.0                 !
 ! D12   D(6,1,7,9)             -0.0237         -DE/DX =    0.0                 !
 ! D13   D(1,2,3,4)             -0.0002         -DE/DX =    0.0                 !
 ! D14   D(1,2,3,11)          -180.0003         -DE/DX =    0.0                 !
 ! D15   D(10,2,3,4)           179.9992         -DE/DX =    0.0                 !
 ! D16   D(10,2,3,11)           -0.0008         -DE/DX =    0.0                 !
 ! D17   D(2,3,4,5)              0.0001         -DE/DX =    0.0                 !
 ! D18   D(11,3,4,5)           180.0002         -DE/DX =    0.0                 !
 ! D19   D(3,4,5,6)              0.0004         -DE/DX =    0.0                 !
 ! D20   D(3,4,5,12)          -179.9997         -DE/DX =    0.0                 !
 ! D21   D(4,5,6,1)             -0.0008         -DE/DX =    0.0                 !
 ! D22   D(4,5,6,13)          -180.0005         -DE/DX =    0.0                 !
 ! D23   D(12,5,6,1)           179.9994         -DE/DX =    0.0                 !
 ! D24   D(12,5,6,13)           -0.0003         -DE/DX =    0.0                 !
 ! D25   D(1,7,9,14)          -179.9836         -DE/DX =    0.0                 !
 ! D26   D(8,7,9,14)            -0.018          -DE/DX =    0.0                 !
 --------------------------------------------------------------------------------
 GradGradGradGradGradGradGradGradGradGradGradGradGradGradGradGradGradGrad


 ----------------------------------------------------------------------

 Electric dipole moment (input orientation):
 (Debye = 10**-18 statcoulomb cm , SI units = C m)
                  (au)            (Debye)         (10**-30 SI)
   Tot        0.702199D+00      0.178481D+01      0.595349D+01
   x         -0.269205D+00     -0.684251D+00     -0.228242D+01
   y          0.636944D+00      0.161895D+01      0.540023D+01
   z         -0.122125D+00     -0.310412D+00     -0.103542D+01

 Dipole polarizability, Alpha (input orientation).
 (esu units = cm**3 , SI units = C**2 m**2 J**-1)
 Alpha(0;0):
               (au)            (10**-24 esu)      (10**-40 SI)
   iso        0.815474D+02      0.120841D+02      0.134453D+02
   aniso      0.509313D+02      0.754724D+01      0.839744D+01
   xx         0.102497D+03      0.151884D+02      0.168994D+02
   yx        -0.133653D+01     -0.198053D+00     -0.220363D+00
   yy         0.916308D+02      0.135783D+02      0.151079D+02
   zx         0.897178D+01      0.132948D+01      0.147925D+01
   zy        -0.553212D+01     -0.819776D+00     -0.912123D+00
   zz         0.505148D+02      0.748552D+01      0.832877D+01

 ----------------------------------------------------------------------

 Dipole orientation:
     6         -0.26255606          0.20768976          0.58330722
     6         -0.53703848          0.35776290         -2.01844278
     6          1.34472570         -0.67039141         -3.52285451
     7          3.39837870         -1.79254621         -2.60052112
     6          3.63623976         -1.92260156         -0.10282819
     6          1.86631959         -0.95558700          1.57421963
     6         -2.27889285          1.30943823          2.21469949
     8         -4.14484238          2.32862183          1.42997648
     8         -1.79404952          1.04337223          4.69317575
     1         -2.18321323          1.25729267         -2.82433962
     1          1.19735937         -0.58980516         -5.56253771
     1          5.32353685         -2.84456099          0.59895342
     1          2.14038800         -1.10542490          3.59034419
     1         -3.18622533          1.80359002          5.59877414

 Electric dipole moment (dipole orientation):
 (Debye = 10**-18 statcoulomb cm , SI units = C m)
                  (au)            (Debye)         (10**-30 SI)
   Tot        0.702199D+00      0.178481D+01      0.595349D+01
   x          0.000000D+00      0.000000D+00      0.000000D+00
   y          0.000000D+00      0.000000D+00      0.000000D+00
   z          0.702199D+00      0.178481D+01      0.595349D+01

 Dipole polarizability, Alpha (dipole orientation).
 (esu units = cm**3 , SI units = C**2 m**2 J**-1)
 Alpha(0;0):
               (au)            (10**-24 esu)      (10**-40 SI)
   iso        0.815474D+02      0.120841D+02      0.134453D+02
   aniso      0.509313D+02      0.754724D+01      0.839744D+01
   xx         0.884490D+02      0.131068D+02      0.145833D+02
   yx        -0.218949D+02     -0.324449D+01     -0.360998D+01
   yy         0.603376D+02      0.894111D+01      0.994833D+01
   zx        -0.513192D+01     -0.760471D+00     -0.846139D+00
   zy         0.279959D+01      0.414856D+00      0.461590D+00
   zz         0.958555D+02      0.142043D+02      0.158044D+02

 ----------------------------------------------------------------------
 Unable to Open any file for archive entry.
 1\1\GINC-AE26\Freq\RM062X\Aug-CC-pVTZ\C6H5N1O2\AKJ\27-Apr-2023\0\\#N G
 eom=AllCheck Guess=TCheck SCRF=Check GenChk RM062X/Aug-CC-pVTZ Freq\\C
 YH-191-A_eq00002\\0,1\C,-0.2724375364,0.2059557784,-0.100109717\C,0.10
 47979121,-1.1096682371,0.1229891045\C,1.4422860117,-1.3740634448,0.373
 2016443\N,2.3817596409,-0.4317949983,0.4103202834\C,2.0055437399,0.824
 9723112,0.1946191606\C,0.6943917611,1.1994429872,-0.0648247325\C,-1.70
 95198048,0.4985575176,-0.3700328703\O,-2.5738770324,-0.3319349337,-0.4
 084700226\O,-1.9461826037,1.8063458035,-0.568786219\H,-0.6347681955,-1
 .8969331978,0.099348233\H,1.7752308772,-2.3889696614,0.5521366598\H,2.
 7887845302,1.5722584235,0.2302658037\H,0.4357353778,2.2338641445,-0.23
 40551369\H,-2.893544668,1.9024675073,-0.7346021909\\Version=ES64L-G16R
 evC.01\State=1-A\HF=-436.8567373\RMSD=1.391e-09\RMSF=5.640e-05\ZeroPoi
 nt=0.1047789\Thermal=0.1117424\ETot=-436.7449949\HTot=-436.7440507\GTo
 t=-436.7839927\Dipole=-0.269205,0.6369435,-0.1221255\DipoleDeriv=-0.25
 79148,0.12738,-0.0547883,0.1208695,0.166591,-0.0029554,-0.0540602,-0.0
 018933,-0.0259592,-0.0982031,0.314005,-0.0445657,-0.0302678,-0.2094341
 ,0.0132647,-0.0023126,0.0693067,-0.0703281,0.176113,-0.336544,0.069302
 ,-0.059032,0.3098498,-0.0471459,0.0352141,-0.0923288,0.0215362,-0.4778
 553,0.0498782,-0.0381842,0.0433707,-0.2801275,0.0069657,-0.0374068,0.0
 080281,-0.2879822,0.3653322,0.3115901,0.0209017,0.0479626,0.1193737,-0
 .0066618,0.053318,0.036259,0.0058897,-0.2310727,-0.3129587,0.0113642,0
 .0353141,-0.0721885,0.0066824,-0.0314766,-0.0499819,-0.0635589,1.79596
 92,-0.0655696,0.2460103,-0.1323393,1.7245517,-0.1921244,0.2541147,-0.1
 8123,0.3975354,-1.1801148,-0.3036931,-0.0954395,-0.1825591,-0.8325174,
 0.0276217,-0.1101153,0.0080677,-0.3838103,-0.6282919,0.3754735,-0.0901
 484,0.3276932,-1.242957,0.161979,-0.0842226,0.1695455,-0.39197,0.08386
 67,-0.0467735,-0.0016521,-0.0312356,0.0537241,0.0042052,-0.0035632,0.0
 016796,0.1285339,0.0547415,0.0337293,-0.0126769,0.0186653,-0.0635798,0
 .0240224,-0.0108195,0.0264795,0.1021439,0.0024728,-0.0754629,-0.007680
 9,-0.0602982,-0.0195154,0.0056912,-0.0095447,0.0032139,0.1046987,0.103
 5779,0.011739,-0.0058759,0.009374,0.014603,0.015809,-0.005591,0.016184
 6,0.1278823,0.2913793,-0.0827935,0.0034336,-0.1075173,0.3316263,-0.017
 3537,0.0064659,-0.0133307,0.3353886\Polar=102.4966112,-1.3365262,91.63
 07515,8.9717823,-5.5321199,50.5148134\Quadrupole=-3.6946056,4.5341421,
 -0.8395365,-2.4346895,-0.148643,-1.0695968\PG=C01 [X(C6H5N1O2)]\NImag=
 0\\0.65853468,0.02835163,0.72096015,0.07887070,-0.06522965,0.17342491,
 -0.14159763,0.01317802,-0.01366006,0.71070015,0.08334182,-0.32345901,0
 .04500463,0.05752373,0.71952239,-0.02228195,0.03358416,-0.07541357,0.0
 8583682,-0.06186026,0.16156568,0.00584210,0.09886344,-0.01277595,-0.31
 153674,0.00175422,-0.03891447,0.65785539,0.03900875,0.01951687,0.00514
 486,0.08567041,-0.15223978,0.02358232,-0.02572263,0.76150982,-0.005421
 94,0.01488662,0.00697933,-0.04922492,0.00992231,-0.08305126,0.08353767
 ,-0.07761469,0.18722357,-0.00319052,-0.02317247,0.00425294,-0.05971310
 ,-0.01320332,-0.01216975,-0.23731011,-0.13342110,-0.01100250,0.4267645
 7,-0.02333152,-0.09045362,0.00586570,-0.09148131,0.06849720,-0.0202344
 3,-0.08098787,-0.23756494,0.00753832,0.06326970,0.64590619,0.00427298,
 0.00589255,-0.01184986,-0.00254951,-0.00749266,0.02552251,-0.01744651,
 -0.00099730,-0.07169453,0.04610055,-0.05731298,0.11032939,-0.05027996,
 -0.06414290,-0.00198986,-0.04771846,0.03746779,-0.01058122,0.06616787,
 -0.00525120,0.01085165,-0.14923858,0.03114955,-0.01686945,0.70738588,-
 0.00369701,0.07168096,-0.00813857,0.05298771,-0.04321213,0.01258406,-0
 .07778429,-0.09039728,-0.00112498,0.08342157,-0.32455594,0.04497206,0.
 07005189,0.71587150,-0.00942054,-0.01797798,0.01104867,-0.01248908,0.0
 1005843,-0.01427153,0.01976602,0.01068171,0.00537700,-0.02329446,0.036
 46305,-0.07739271,0.07988250,-0.05645513,0.18367433,-0.22884122,-0.071
 72543,-0.01766014,0.06971047,-0.05819988,0.01727945,-0.08578520,-0.032
 37653,-0.00820820,0.01332130,0.12128570,-0.01684244,-0.31044282,-0.005
 97706,-0.03771358,0.66245806,-0.14167951,-0.24528513,-0.00105688,-0.00
 577376,-0.05058555,0.00619952,-0.01632810,-0.00721189,-0.00311412,0.04
 214328,-0.00066372,0.01003970,0.07912193,-0.14850241,0.02200937,-0.009
 78051,0.76049702,-0.00906079,0.01033002,-0.06897119,0.01083584,-0.0023
 3532,0.00955138,-0.01018015,-0.00572581,-0.01187254,-0.00711498,0.0229
 2283,0.02123556,-0.04817475,0.00815720,-0.08306795,0.08641422,-0.07797
 409,0.16263444,-0.19414006,0.02313784,-0.02017296,-0.01082483,0.019174
 85,-0.00475441,0.00418488,0.00157925,-0.00115881,0.00159792,-0.0023213
 7,0.00139061,-0.00079020,-0.00442915,-0.00131158,-0.02102722,-0.004891
 17,-0.00324182,0.84330318,0.03349142,-0.10400634,0.00744922,0.03023385
 ,0.00066886,0.00532327,0.00530650,-0.00704553,0.00297382,-0.00268304,-
 0.00603929,-0.00033306,-0.00744450,-0.00212352,0.00035365,-0.01856057,
 0.01634353,-0.00471502,0.21116072,0.79260916,-0.02141630,0.00575648,-0
 .09197605,-0.00611762,0.00351906,0.00249574,-0.00161776,0.00236807,0.0
 0956601,0.00143597,-0.00027498,-0.00492829,-0.00094344,0.00084371,0.01
 036194,-0.00156184,-0.00248388,0.00263364,0.07615246,-0.03656348,0.232
 12677,-0.04726959,-0.03661185,-0.00679941,-0.00136114,-0.00433408,0.00
 032396,0.00154413,-0.00105850,0.00057347,-0.00161348,-0.00078165,-0.00
 029842,-0.00215042,-0.00056767,0.00006872,-0.00461392,0.00845640,-0.00
 208714,-0.47235891,-0.31729784,-0.02493764,0.50427143,-0.01622110,0.00
 695493,-0.00076145,0.00277023,-0.00550557,0.00111579,-0.00170131,0.001
 25945,-0.00057704,0.00102009,0.00184205,0.00003932,0.00079561,0.000250
 78,-0.00016542,0.00055466,0.00079849,0.00021626,-0.32781055,-0.4090933
 4,-0.01274034,0.39321306,0.49877172,-0.00931682,-0.00407711,0.02120348
 ,-0.00054803,-0.00003820,-0.00017051,0.00065267,-0.00047231,-0.0010145
 2,-0.00052008,-0.00025448,0.00075665,-0.00009793,-0.00038605,-0.002116
 95,-0.00111384,0.00150014,0.00145611,-0.02363664,-0.01102666,-0.081578
 35,0.02826612,0.00673795,0.03699958,-0.01246254,0.04363558,-0.00933142
 ,-0.00671961,-0.00318616,-0.00087575,-0.00111112,0.00182493,-0.0002930
 8,-0.00066014,0.00164449,-0.00038001,0.00199400,0.00021495,0.00044399,
 -0.00493725,0.00141905,-0.00101030,-0.13970362,0.05292283,-0.01855066,
 0.02792865,-0.04546312,0.00528155,0.62725961,0.01318695,-0.01842538,0.
 00587490,0.00217810,0.00238413,0.00019207,-0.00012003,0.00031548,-0.00
 014313,0.00099674,0.00057404,0.00014485,0.00020870,0.00007780,-0.00008
 539,0.00001231,-0.00365837,0.00047762,0.02735543,-0.26815348,0.0292930
 7,-0.03514233,-0.10283380,0.01055207,-0.06245941,0.43550296,-0.0056055
 2,0.01083451,0.00977563,-0.00153265,-0.00067986,0.00089860,-0.00005341
 ,0.00017236,-0.00072429,-0.00030002,0.00025064,0.00035356,0.00044487,-
 0.00008462,-0.00081311,-0.00083739,0.00070454,-0.00001820,-0.01541584,
 0.03343963,-0.07211848,0.00401706,0.00887945,0.02931011,0.10333094,-0.
 05879543,0.06285506,0.01087663,0.00568978,0.00042312,-0.19331115,-0.14
 596382,-0.00705754,-0.01055963,-0.02341156,0.00076074,-0.00568674,0.00
 080690,-0.00228798,-0.00058162,0.00204793,-0.00029165,0.00060195,0.002
 71293,-0.00142387,0.00023240,0.00114720,0.00059427,-0.00159130,0.00042
 965,-0.00028245,0.00015121,-0.00115157,0.00014444,0.19869134,-0.021307
 72,-0.01648185,-0.00095343,-0.14441929,-0.21446516,-0.00203972,0.00607
 007,0.01019565,0.00003514,0.00267414,0.00143975,0.00121203,0.00098626,
 -0.00052363,0.00018353,0.00303827,-0.00411370,0.00189743,-0.00290760,-
 0.00224529,-0.00072364,0.00056148,0.00224413,-0.00020682,0.00022184,0.
 00107338,-0.00007939,0.15671423,0.22337462,0.00374181,0.00343938,0.004
 16978,-0.00724828,-0.00228916,-0.04066132,-0.00286121,-0.00476449,0.00
 255950,-0.00251798,0.00090766,0.00723920,-0.00016149,0.00035671,-0.000
 40680,-0.00146345,0.00184471,0.00683520,0.00109085,-0.00006324,-0.0040
 9544,-0.00029842,-0.00022779,-0.00020117,-0.00002362,-0.00030355,0.000
 16370,0.00863190,0.00142124,0.02858600,-0.00553224,0.00010872,-0.00213
 073,-0.00431344,0.02840097,-0.00539190,-0.08982540,0.09099505,-0.01854
 603,0.00794755,-0.02925466,0.00550517,-0.00106422,-0.00481486,-0.00138
 964,-0.00089272,-0.00098228,0.00005399,0.00082881,0.00142095,0.0000154
 1,-0.00030093,-0.00021268,-0.00004409,-0.00074934,0.00036307,-0.000154
 59,0.00065950,-0.00050248,0.00072610,0.09283678,0.00076574,0.00131502,
 0.00088133,-0.00045026,-0.00090058,0.00094299,0.08935371,-0.29514238,0
 .04533828,-0.00241003,-0.02757110,0.00253129,-0.00311447,-0.00000491,0
 .00085893,-0.00001959,0.00021734,-0.00008918,-0.00064865,-0.00010821,-
 0.00013423,0.00028881,0.00010555,0.00005016,0.00018601,-0.00007737,0.0
 0003092,0.00053166,0.00020892,-0.00035957,-0.08493540,0.32271295,-0.00
 221075,0.00077454,0.00701662,-0.00184611,0.00563928,0.00637402,-0.0183
 4443,0.04560580,-0.05318982,0.00220593,-0.00183870,-0.00319931,-0.0015
 9885,0.00058215,0.01077707,-0.00006425,-0.00024597,-0.00046280,0.00026
 986,0.00020250,-0.00032176,-0.00010587,-0.00003137,0.00011819,-0.00013
 302,0.00005974,-0.00010096,0.00059895,-0.00052796,-0.00325888,0.020961
 60,-0.05002370,0.03775625,-0.00456587,0.00272057,-0.00226931,-0.000190
 96,0.00121466,-0.00009857,0.00237028,0.00320057,-0.00182475,0.01338172
 ,0.00745189,0.00189981,-0.21460747,-0.14012916,-0.01053336,-0.01560330
 ,-0.02113212,-0.00113498,0.00049509,-0.00159174,0.00031734,-0.00102803
 ,-0.00007245,-0.00013754,-0.00021358,0.00037818,-0.00008904,-0.0000360
 3,-0.00006471,0.00028566,0.00029389,0.00028021,-0.00002875,0.21911958,
 0.00198872,0.00033725,0.00118203,0.00027673,-0.00044187,0.00003753,0.0
 0150490,-0.00322315,0.00201333,-0.01929704,-0.03284633,0.00041439,-0.1
 3859287,-0.17707992,-0.00621436,0.00775225,0.00963329,0.00097810,0.000
 45512,0.00039319,-0.00000538,0.00022094,0.00004056,0.00001530,-0.00010
 103,0.00008067,-0.00002032,-0.00016352,0.00008818,-0.00025159,-0.00082
 496,-0.00070420,-0.00001590,0.14735974,0.20344613,-0.00217880,0.001300
 74,0.00680479,0.00001674,0.00019015,-0.00052318,-0.00161662,0.00228928
 ,0.01062044,0.00518745,0.00476879,-0.00365889,-0.01072216,-0.00646481,
 -0.04503955,-0.00468531,-0.00372330,0.00702101,0.00006605,-0.00033842,
 -0.00020289,-0.00017379,-0.00003234,-0.00015085,-0.00003035,0.00005761
 ,0.00003715,0.00029788,-0.00023549,-0.00166486,0.00010707,0.00016398,0
 .00025619,0.01301904,0.00240775,0.02969468,0.01048523,-0.02075589,0.00
 375905,-0.00288782,-0.00385881,-0.00122786,-0.00197921,-0.00137141,-0.
 00009389,-0.00574832,0.00274948,-0.00253931,0.00149505,0.02865969,-0.0
 0367727,-0.07468842,0.06685984,-0.01404591,0.00162108,-0.00189119,0.00
 119076,0.00031664,0.00100768,-0.00017269,-0.00316169,0.00103654,-0.000
 67151,0.00058386,-0.00118009,0.00014570,0.00012829,0.00020858,0.000287
 64,0.00056176,-0.00059743,0.00071600,0.07326472,0.00689805,-0.01611516
 ,0.00347995,-0.00409936,-0.00058410,0.00033441,-0.00026914,0.00069911,
 -0.00017484,0.00099984,0.00136312,0.00095087,-0.00137509,-0.00182301,0
 .00030073,0.06508947,-0.32733131,0.04604523,0.00108901,-0.00207540,-0.
 00009301,-0.00009435,0.00067427,-0.00002228,0.00167016,0.00087551,0.00
 018715,0.00055250,-0.00066946,0.00024352,0.00011101,-0.00005707,-0.000
 19566,0.00042511,0.00028601,-0.00038203,-0.07102416,0.34420526,0.00036
 134,-0.00101992,0.00324885,-0.00119814,0.00037340,0.00732745,-0.000229
 78,-0.00035433,-0.00036113,-0.00232452,0.00123644,0.00724691,0.0000150
 3,0.00518974,0.00180921,-0.01382950,0.04633147,-0.04682614,0.00082422,
 -0.00057733,-0.00406468,-0.00003719,0.00015680,0.00059176,-0.00074937,
 0.00008375,0.00005405,-0.00006730,-0.00003856,0.00057368,0.00029962,-0
 .00017981,-0.00172542,0.00059039,-0.00054860,-0.00322256,0.01633000,-0
 .05059772,0.03544446,0.00214098,0.00072296,-0.00051596,-0.00023573,-0.
 00013197,-0.00008680,0.00014278,0.00033398,0.00005059,0.00014792,-0.00
 019932,0.00004451,-0.00016907,0.00001546,-0.00004007,0.00074029,-0.000
 14597,0.00017065,-0.01341853,0.01378541,-0.00456097,-0.00177314,-0.008
 30977,0.00166975,-0.48761457,0.05315732,-0.08327734,-0.00003043,0.0001
 1559,-0.00004757,-0.00001653,-0.00003631,0.00000805,0.00002292,0.00001
 846,-0.00000320,0.00000882,0.00002696,0.00001520,0.50005430,-0.0007962
 3,-0.00653870,0.00125738,0.00140520,0.00032116,0.00023827,0.00006054,-
 0.00067143,0.00004100,-0.00033836,0.00007258,-0.00006104,0.00013930,0.
 00034170,-0.00001112,-0.00109307,-0.00013759,-0.00018526,0.05905627,-0
 .00912436,0.01123855,-0.00685241,0.00449078,-0.00237169,0.00746989,-0.
 04773556,0.00516041,0.00005768,-0.00012556,0.00004619,0.00012755,0.000
 00603,0.00001525,-0.00004077,-0.00000984,-0.00000190,0.00015718,0.0005
 5222,-0.00005533,-0.05935279,0.05855855,-0.00033342,0.00150567,0.00453
 860,-0.00027502,-0.00001181,0.00035600,0.00008393,0.00008456,-0.000417
 78,0.00006146,-0.00003784,0.00003982,-0.00005490,-0.00003147,0.0000603
 9,0.00028628,-0.00003122,-0.00014850,-0.01010199,0.00387512,0.00210184
 ,0.00148853,-0.00260982,-0.00520352,-0.07767891,0.01259183,-0.02967282
 ,-0.00004051,0.00005566,0.00016139,-0.00001197,-0.00001140,-0.00003938
 ,0.00000405,0.00000773,0.00002851,-0.00000071,-0.00007631,-0.00009642,
 0.08657318,-0.01531070,0.02829186\\0.00008823,0.00001212,0.00004108,-0
 .00005011,-0.00000684,-0.00000522,-0.00006493,0.00001404,-0.00001475,0
 .00011592,-0.00005232,0.00002660,-0.00009080,0.00004494,-0.00002290,-0
 .00005647,-0.00000890,-0.00000714,-0.00009499,-0.00014753,-0.00008735,
 0.00005439,0.00001085,0.00004152,0.00012406,0.00011354,0.00003388,0.00
 003503,-0.00001970,0.00000822,0.00000669,0.00002495,-0.00000186,-0.000
 00872,-0.00002528,0.00000157,0.00003119,0.00002123,0.00000315,-0.00008
 950,0.00001889,-0.00001680\\\@
 The archive entry for this job was punched.


 The hours that make us happy make us wise.
                         -- John Masefield
 Job cpu time:       0 days  7 hours 32 minutes 37.1 seconds.
 Elapsed time:       0 days  0 hours 22 minutes 38.7 seconds.
 File lengths (MBytes):  RWF=    298 Int=      0 D2E=      0 Chk=     23 Scr=      1
 Normal termination of Gaussian 16 at Thu Apr 27 11:49:27 2023.
