 Entering Gaussian System, Link 0=g16
 Initial command:
 /usr/local/gaussian16c01/g16/l1.exe "/scr/akj/Gau-36422.inp" -scrdir="/scr/akj/"
 Entering Link 1 = /usr/local/gaussian16c01/g16/l1.exe PID=     36423.
  
 Copyright (c) 1988-2019, Gaussian, Inc.  All Rights Reserved.
  
 This is part of the Gaussian(R) 16 program.  It is based on
 the Gaussian(R) 09 system (copyright 2009, Gaussian, Inc.),
 the Gaussian(R) 03 system (copyright 2003, Gaussian, Inc.),
 the Gaussian(R) 98 system (copyright 1998, Gaussian, Inc.),
 the Gaussian(R) 94 system (copyright 1995, Gaussian, Inc.),
 the Gaussian 92(TM) system (copyright 1992, Gaussian, Inc.),
 the Gaussian 90(TM) system (copyright 1990, Gaussian, Inc.),
 the Gaussian 88(TM) system (copyright 1988, Gaussian, Inc.),
 the Gaussian 86(TM) system (copyright 1986, Carnegie Mellon
 University), and the Gaussian 82(TM) system (copyright 1983,
 Carnegie Mellon University). Gaussian is a federally registered
 trademark of Gaussian, Inc.
  
 This software contains proprietary and confidential information,
 including trade secrets, belonging to Gaussian, Inc.
  
 This software is provided under written license and may be
 used, copied, transmitted, or stored only in accord with that
 written license.
  
 The following legend is applicable only to US Government
 contracts under FAR:
  
                    RESTRICTED RIGHTS LEGEND
  
 Use, reproduction and disclosure by the US Government is
 subject to restrictions as set forth in subparagraphs (a)
 and (c) of the Commercial Computer Software - Restricted
 Rights clause in FAR 52.227-19.
  
 Gaussian, Inc.
 340 Quinnipiac St., Bldg. 40, Wallingford CT 06492
  
  
 ---------------------------------------------------------------
 Warning -- This program may not be used in any manner that
 competes with the business of Gaussian, Inc. or will provide
 assistance to any competitor of Gaussian, Inc.  The licensee
 of this program is prohibited from giving any competitor of
 Gaussian, Inc. access to this program.  By using this program,
 the user acknowledges that Gaussian, Inc. is engaged in the
 business of creating and licensing software in the field of
 computational chemistry and represents and warrants to the
 licensee that it is not a competitor of Gaussian, Inc. and that
 it will not use this program in any manner prohibited above.
 ---------------------------------------------------------------
  

 Cite this work as:
 Gaussian 16, Revision C.01,
 M. J. Frisch, G. W. Trucks, H. B. Schlegel, G. E. Scuseria, 
 M. A. Robb, J. R. Cheeseman, G. Scalmani, V. Barone, 
 G. A. Petersson, H. Nakatsuji, X. Li, M. Caricato, A. V. Marenich, 
 J. Bloino, B. G. Janesko, R. Gomperts, B. Mennucci, H. P. Hratchian, 
 J. V. Ortiz, A. F. Izmaylov, J. L. Sonnenberg, D. Williams-Young, 
 F. Ding, F. Lipparini, F. Egidi, J. Goings, B. Peng, A. Petrone, 
 T. Henderson, D. Ranasinghe, V. G. Zakrzewski, J. Gao, N. Rega, 
 G. Zheng, W. Liang, M. Hada, M. Ehara, K. Toyota, R. Fukuda, 
 J. Hasegawa, M. Ishida, T. Nakajima, Y. Honda, O. Kitao, H. Nakai, 
 T. Vreven, K. Throssell, J. A. Montgomery, Jr., J. E. Peralta, 
 F. Ogliaro, M. J. Bearpark, J. J. Heyd, E. N. Brothers, K. N. Kudin, 
 V. N. Staroverov, T. A. Keith, R. Kobayashi, J. Normand, 
 K. Raghavachari, A. P. Rendell, J. C. Burant, S. S. Iyengar, 
 J. Tomasi, M. Cossi, J. M. Millam, M. Klene, C. Adamo, R. Cammi, 
 J. W. Ochterski, R. L. Martin, K. Morokuma, O. Farkas, 
 J. B. Foresman, and D. J. Fox, Gaussian, Inc., Wallingford CT, 2019.
 
 ******************************************
 Gaussian 16:  ES64L-G16RevC.01  3-Jul-2019
                27-Apr-2023 
 ******************************************
 %nprocshared=20
 Will use up to   20 processors via shared memory.
 %mem=10000MW
 %chk=CYH-186-A_eq00002.chk
 ------------------------------------
 # opt freq M062x/aug-cc-pvtz pop=nbo
 ------------------------------------
 1/18=20,19=15,26=3,38=1/1,3;
 2/9=110,12=2,17=6,18=5,40=1/2;
 3/5=16,6=1,7=10,11=2,25=1,30=1,71=1,74=-55/1,2,3;
 4//1;
 5/5=2,38=5/2;
 6/7=2,8=2,9=2,10=2,28=1,40=1/1,7;
 7//1,2,3,16;
 1/18=20,19=15,26=3/3(2);
 2/9=110/2;
 99//99;
 2/9=110/2;
 3/5=16,6=1,7=10,11=2,25=1,30=1,71=1,74=-55/1,2,3;
 4/5=5,16=3,69=1/1;
 5/5=2,38=5/2;
 7//1,2,3,16;
 1/18=20,19=15,26=3/3(-5);
 2/9=110/2;
 6/7=2,8=2,9=2,10=2,19=2,28=1,40=1/1,7;
 99/9=1/99;
 -----------------
 CYH-186-A_eq00002
 -----------------
 Symbolic Z-matrix:
 Charge =  0 Multiplicity = 1
 C                    -1.59403  -0.81448  -0.80307 
 C                    -1.35748  -1.17601   0.4902 
 C                    -0.12984  -0.68846   0.96487 
 C                     0.54832   0.03867   0.01904 
 S                    -0.32935   0.12561  -1.46974 
 C                     1.84302   0.68242   0.1794 
 O                     2.50316   0.65944   1.18918 
 O                     2.24268   1.3216   -0.93431 
 H                    -2.44899  -1.05078  -1.40568 
 H                    -2.03634  -1.76748   1.0774 
 H                     0.25851  -0.85181   1.95345 
 H                     3.10623   1.73597  -0.78593 
 

 GradGradGradGradGradGradGradGradGradGradGradGradGradGradGradGradGradGrad
 Berny optimization.
 Initialization pass.
                           ----------------------------
                           !    Initial Parameters    !
                           ! (Angstroms and Degrees)  !
 --------------------------                            --------------------------
 ! Name  Definition              Value          Derivative Info.                !
 --------------------------------------------------------------------------------
 ! R1    R(1,2)                  1.3635         estimate D2E/DX2                !
 ! R2    R(1,5)                  1.711          estimate D2E/DX2                !
 ! R3    R(1,9)                  1.0724         estimate D2E/DX2                !
 ! R4    R(2,3)                  1.4036         estimate D2E/DX2                !
 ! R5    R(2,10)                 1.0749         estimate D2E/DX2                !
 ! R6    R(3,4)                  1.3723         estimate D2E/DX2                !
 ! R7    R(3,11)                 1.0746         estimate D2E/DX2                !
 ! R8    R(4,5)                  1.7304         estimate D2E/DX2                !
 ! R9    R(4,6)                  1.4548         estimate D2E/DX2                !
 ! R10   R(6,7)                  1.2066         estimate D2E/DX2                !
 ! R11   R(6,8)                  1.3449         estimate D2E/DX2                !
 ! R12   R(8,12)                 0.9692         estimate D2E/DX2                !
 ! A1    A(2,1,5)              112.7681         estimate D2E/DX2                !
 ! A2    A(2,1,9)              127.7987         estimate D2E/DX2                !
 ! A3    A(5,1,9)              119.4332         estimate D2E/DX2                !
 ! A4    A(1,2,3)              112.3582         estimate D2E/DX2                !
 ! A5    A(1,2,10)             123.6728         estimate D2E/DX2                !
 ! A6    A(3,2,10)             123.969          estimate D2E/DX2                !
 ! A7    A(2,3,4)              112.5312         estimate D2E/DX2                !
 ! A8    A(2,3,11)             125.0573         estimate D2E/DX2                !
 ! A9    A(4,3,11)             122.4115         estimate D2E/DX2                !
 ! A10   A(3,4,5)              111.6512         estimate D2E/DX2                !
 ! A11   A(3,4,6)              126.7479         estimate D2E/DX2                !
 ! A12   A(5,4,6)              121.6009         estimate D2E/DX2                !
 ! A13   A(1,5,4)               90.6914         estimate D2E/DX2                !
 ! A14   A(4,6,7)              124.7996         estimate D2E/DX2                !
 ! A15   A(4,6,8)              112.5513         estimate D2E/DX2                !
 ! A16   A(7,6,8)              122.6491         estimate D2E/DX2                !
 ! A17   A(6,8,12)             109.9491         estimate D2E/DX2                !
 ! D1    D(5,1,2,3)              0.0041         estimate D2E/DX2                !
 ! D2    D(5,1,2,10)           179.9959         estimate D2E/DX2                !
 ! D3    D(9,1,2,3)           -179.9916         estimate D2E/DX2                !
 ! D4    D(9,1,2,10)             0.0003         estimate D2E/DX2                !
 ! D5    D(2,1,5,4)             -0.0047         estimate D2E/DX2                !
 ! D6    D(9,1,5,4)            179.9913         estimate D2E/DX2                !
 ! D7    D(1,2,3,4)             -0.0009         estimate D2E/DX2                !
 ! D8    D(1,2,3,11)           179.991          estimate D2E/DX2                !
 ! D9    D(10,2,3,4)          -179.9927         estimate D2E/DX2                !
 ! D10   D(10,2,3,11)           -0.0008         estimate D2E/DX2                !
 ! D11   D(2,3,4,5)             -0.0027         estimate D2E/DX2                !
 ! D12   D(2,3,4,6)            179.9743         estimate D2E/DX2                !
 ! D13   D(11,3,4,5)          -179.9948         estimate D2E/DX2                !
 ! D14   D(11,3,4,6)            -0.0178         estimate D2E/DX2                !
 ! D15   D(3,4,5,1)              0.0042         estimate D2E/DX2                !
 ! D16   D(6,4,5,1)           -179.9742         estimate D2E/DX2                !
 ! D17   D(3,4,6,7)             -0.0088         estimate D2E/DX2                !
 ! D18   D(3,4,6,8)           -179.9995         estimate D2E/DX2                !
 ! D19   D(5,4,6,7)            179.9661         estimate D2E/DX2                !
 ! D20   D(5,4,6,8)             -0.0247         estimate D2E/DX2                !
 ! D21   D(4,6,8,12)           179.9639         estimate D2E/DX2                !
 ! D22   D(7,6,8,12)            -0.0271         estimate D2E/DX2                !
 --------------------------------------------------------------------------------
 Trust Radius=3.00D-01 FncErr=1.00D-07 GrdErr=1.00D-06 EigMax=2.50D+02 EigMin=1.00D-04
 Number of steps in this run=     61 maximum allowed number of steps=    100.
 GradGradGradGradGradGradGradGradGradGradGradGradGradGradGradGradGradGrad

                          Input orientation:                          
 ---------------------------------------------------------------------
 Center     Atomic      Atomic             Coordinates (Angstroms)
 Number     Number       Type             X           Y           Z
 ---------------------------------------------------------------------
      1          6           0       -1.594028   -0.814482   -0.803074
      2          6           0       -1.357479   -1.176006    0.490198
      3          6           0       -0.129843   -0.688463    0.964874
      4          6           0        0.548323    0.038675    0.019037
      5         16           0       -0.329352    0.125615   -1.469739
      6          6           0        1.843019    0.682419    0.179396
      7          8           0        2.503156    0.659439    1.189182
      8          8           0        2.242684    1.321597   -0.934311
      9          1           0       -2.448991   -1.050776   -1.405685
     10          1           0       -2.036338   -1.767475    1.077402
     11          1           0        0.258513   -0.851811    1.953446
     12          1           0        3.106234    1.735970   -0.785927
 ---------------------------------------------------------------------
                    Distance matrix (angstroms):
                    1          2          3          4          5
     1  C    0.000000
     2  C    1.363528   0.000000
     3  C    2.298990   1.403604   0.000000
     4  C    2.448144   2.308576   1.372314   0.000000
     5  S    1.711032   2.567609   2.574853   1.730413   0.000000
     6  C    3.875468   3.713964   2.527544   1.454771   2.783680
     7  O    4.788365   4.331506   2.966453   2.361347   3.921471
     8  O    4.393224   4.607431   3.643643   2.329296   2.886595
     9  H    1.072351   2.191222   3.336055   3.492940   2.425050
    10  H    2.154071   1.074939   2.193548   3.326077   3.603543
    11  H    3.321401   2.204003   1.074607   2.149161   3.608205
    12  H    5.347669   5.480222   4.406288   3.173592   3.855398
                    6          7          8          9         10
     6  C    0.000000
     7  O    1.206639   0.000000
     8  O    1.344851   2.239536   0.000000
     9  H    4.892626   5.846531   5.278462   0.000000
    10  H    4.675234   5.148730   5.647955   2.617185   0.000000
    11  H    2.830508   2.811832   4.123079   4.319019   2.621496
    12  H    1.907231   2.328878   0.969248   6.245845   6.495550
                   11         12
    11  H    0.000000
    12  H    4.723377   0.000000
 Stoichiometry    C5H4O2S
 Framework group  C1[X(C5H4O2S)]
 Deg. of freedom    30
 Full point group                 C1      NOp   1
 Largest Abelian subgroup         C1      NOp   1
 Largest concise Abelian subgroup C1      NOp   1
                         Standard orientation:                         
 ---------------------------------------------------------------------
 Center     Atomic      Atomic             Coordinates (Angstroms)
 Number     Number       Type             X           Y           Z
 ---------------------------------------------------------------------
      1          6           0        2.251392   -0.251019    0.000250
      2          6           0        2.004597    1.089989    0.000022
      3          6           0        0.631312    1.380145   -0.000286
      4          6           0       -0.145216    0.248664   -0.000306
      5         16           0        0.819595   -1.187814   -0.000018
      6          6           0       -1.598829    0.190628   -0.000066
      7          8           0       -2.326447    1.153202    0.000340
      8          8           0       -2.064634   -1.070978   -0.000146
      9          1           0        3.203692   -0.744030    0.000627
     10          1           0        2.776531    1.838061    0.000201
     11          1           0        0.209240    2.368394   -0.000363
     12          1           0       -3.033867   -1.065634    0.000594
 ---------------------------------------------------------------------
 Rotational constants (GHZ):           3.7630586           1.4500062           1.0466892
 Standard basis: Aug-CC-pVTZ (5D, 7F)
 There are   544 symmetry adapted cartesian basis functions of A   symmetry.
 There are   464 symmetry adapted basis functions of A   symmetry.
   464 basis functions,   726 primitive gaussians,   544 cartesian basis functions
    33 alpha electrons       33 beta electrons
       nuclear repulsion energy       418.6345386566 Hartrees.
 NAtoms=   12 NActive=   12 NUniq=   12 SFac= 1.00D+00 NAtFMM=   60 NAOKFM=F Big=F
 Integral buffers will be    131072 words long.
 Raffenetti 2 integral format.
 Two-electron integral symmetry is turned on.
 One-electron integrals computed using PRISM.
 NBasis=   464 RedAO= T EigKep=  3.84D-06  NBF=   464
 NBsUse=   464 1.00D-06 EigRej= -1.00D+00 NBFU=   464
 ExpMin= 2.53D-02 ExpMax= 3.74D+05 ExpMxC= 1.18D+03 IAcc=3 IRadAn=         5 AccDes= 0.00D+00
 Harris functional with IExCor= 1009 and IRadAn=       5 diagonalized for initial guess.
 HarFok:  IExCor= 1009 AccDes= 0.00D+00 IRadAn=         5 IDoV= 1 UseB2=F ITyADJ=14
 ICtDFT=  3500011 ScaDFX=  1.000000  1.000000  1.000000  1.000000
 FoFCou: FMM=F IPFlag=           0 FMFlag=      100000 FMFlg1=           0
         NFxFlg=           0 DoJE=T BraDBF=F KetDBF=T FulRan=T
         wScrn=  0.000000 ICntrl=       500 IOpCl=  0 I1Cent=   200000004 NGrid=           0
         NMat0=    1 NMatS0=      1 NMatT0=    0 NMatD0=    1 NMtDS0=    0 NMtDT0=    0
 Petite list used in FoFCou.
 Keep R1 ints in memory in canonical form, NReq=5900042602.
 Requested convergence on RMS density matrix=1.00D-08 within 128 cycles.
 Requested convergence on MAX density matrix=1.00D-06.
 Requested convergence on             energy=1.00D-06.
 No special actions if energy rises.
 SCF Done:  E(RM062X) =  -741.590341352     A.U. after   14 cycles
            NFock= 14  Conv=0.44D-08     -V/T= 2.0036

 **********************************************************************

            Population analysis using the SCF Density.

 **********************************************************************

 Orbital symmetries:
       Occupied  (A) (A) (A) (A) (A) (A) (A) (A) (A) (A) (A) (A)
                 (A) (A) (A) (A) (A) (A) (A) (A) (A) (A) (A) (A)
                 (A) (A) (A) (A) (A) (A) (A) (A) (A)
       Virtual   (A) (A) (A) (A) (A) (A) (A) (A) (A) (A) (A) (A)
                 (A) (A) (A) (A) (A) (A) (A) (A) (A) (A) (A) (A)
                 (A) (A) (A) (A) (A) (A) (A) (A) (A) (A) (A) (A)
                 (A) (A) (A) (A) (A) (A) (A) (A) (A) (A) (A) (A)
                 (A) (A) (A) (A) (A) (A) (A) (A) (A) (A) (A) (A)
                 (A) (A) (A) (A) (A) (A) (A) (A) (A) (A) (A) (A)
                 (A) (A) (A) (A) (A) (A) (A) (A) (A) (A) (A) (A)
                 (A) (A) (A) (A) (A) (A) (A) (A) (A) (A) (A) (A)
                 (A) (A) (A) (A) (A) (A) (A) (A) (A) (A) (A) (A)
                 (A) (A) (A) (A) (A) (A) (A) (A) (A) (A) (A) (A)
                 (A) (A) (A) (A) (A) (A) (A) (A) (A) (A) (A) (A)
                 (A) (A) (A) (A) (A) (A) (A) (A) (A) (A) (A) (A)
                 (A) (A) (A) (A) (A) (A) (A) (A) (A) (A) (A) (A)
                 (A) (A) (A) (A) (A) (A) (A) (A) (A) (A) (A) (A)
                 (A) (A) (A) (A) (A) (A) (A) (A) (A) (A) (A) (A)
                 (A) (A) (A) (A) (A) (A) (A) (A) (A) (A) (A) (A)
                 (A) (A) (A) (A) (A) (A) (A) (A) (A) (A) (A) (A)
                 (A) (A) (A) (A) (A) (A) (A) (A) (A) (A) (A) (A)
                 (A) (A) (A) (A) (A) (A) (A) (A) (A) (A) (A) (A)
                 (A) (A) (A) (A) (A) (A) (A) (A) (A) (A) (A) (A)
                 (A) (A) (A) (A) (A) (A) (A) (A) (A) (A) (A) (A)
                 (A) (A) (A) (A) (A) (A) (A) (A) (A) (A) (A) (A)
                 (A) (A) (A) (A) (A) (A) (A) (A) (A) (A) (A) (A)
                 (A) (A) (A) (A) (A) (A) (A) (A) (A) (A) (A) (A)
                 (A) (A) (A) (A) (A) (A) (A) (A) (A) (A) (A) (A)
                 (A) (A) (A) (A) (A) (A) (A) (A) (A) (A) (A) (A)
                 (A) (A) (A) (A) (A) (A) (A) (A) (A) (A) (A) (A)
                 (A) (A) (A) (A) (A) (A) (A) (A) (A) (A) (A) (A)
                 (A) (A) (A) (A) (A) (A) (A) (A) (A) (A) (A) (A)
                 (A) (A) (A) (A) (A) (A) (A) (A) (A) (A) (A) (A)
                 (A) (A) (A) (A) (A) (A) (A) (A) (A) (A) (A) (A)
                 (A) (A) (A) (A) (A) (A) (A) (A) (A) (A) (A) (A)
                 (A) (A) (A) (A) (A) (A) (A) (A) (A) (A) (A) (A)
                 (A) (A) (A) (A) (A) (A) (A) (A) (A) (A) (A) (A)
                 (A) (A) (A) (A) (A) (A) (A) (A) (A) (A) (A) (A)
                 (A) (A) (A) (A) (A) (A) (A) (A) (A) (A) (A)
 The electronic state is 1-A.
 Alpha  occ. eigenvalues --  -89.97926 -19.68083 -19.62085 -10.68983 -10.58722
 Alpha  occ. eigenvalues --  -10.58713 -10.56503 -10.55884  -8.31404  -6.23318
 Alpha  occ. eigenvalues --   -6.23107  -6.22988  -1.24626  -1.14823  -1.00577
 Alpha  occ. eigenvalues --   -0.86325  -0.84695  -0.75535  -0.66943  -0.63619
 Alpha  occ. eigenvalues --   -0.61403  -0.58188  -0.55056  -0.53455  -0.48639
 Alpha  occ. eigenvalues --   -0.47735  -0.46693  -0.46287  -0.41914  -0.40867
 Alpha  occ. eigenvalues --   -0.36808  -0.32410  -0.31181
 Alpha virt. eigenvalues --   -0.03475  -0.00694  -0.00061   0.00946   0.02202
 Alpha virt. eigenvalues --    0.03215   0.03525   0.03986   0.04635   0.05788
 Alpha virt. eigenvalues --    0.05894   0.06126   0.06690   0.07219   0.08025
 Alpha virt. eigenvalues --    0.08471   0.08578   0.09180   0.09455   0.10156
 Alpha virt. eigenvalues --    0.10567   0.10582   0.11370   0.11434   0.12268
 Alpha virt. eigenvalues --    0.13000   0.13558   0.14375   0.15670   0.16169
 Alpha virt. eigenvalues --    0.16556   0.17603   0.18097   0.18971   0.19437
 Alpha virt. eigenvalues --    0.19835   0.20648   0.20946   0.21710   0.22109
 Alpha virt. eigenvalues --    0.22848   0.24046   0.25077   0.25339   0.25834
 Alpha virt. eigenvalues --    0.25956   0.26575   0.26758   0.27260   0.29141
 Alpha virt. eigenvalues --    0.29241   0.30355   0.31017   0.31701   0.32334
 Alpha virt. eigenvalues --    0.32604   0.32910   0.33745   0.34407   0.35149
 Alpha virt. eigenvalues --    0.35460   0.35504   0.36310   0.36392   0.37619
 Alpha virt. eigenvalues --    0.39229   0.39502   0.39851   0.40365   0.40703
 Alpha virt. eigenvalues --    0.41679   0.42542   0.42968   0.43849   0.43867
 Alpha virt. eigenvalues --    0.44550   0.46060   0.46518   0.46748   0.48651
 Alpha virt. eigenvalues --    0.49323   0.49756   0.50308   0.50764   0.51687
 Alpha virt. eigenvalues --    0.52710   0.53963   0.55284   0.56519   0.56767
 Alpha virt. eigenvalues --    0.57126   0.57752   0.58229   0.60493   0.60612
 Alpha virt. eigenvalues --    0.61828   0.62108   0.63886   0.64359   0.65094
 Alpha virt. eigenvalues --    0.66284   0.67132   0.68518   0.69636   0.70194
 Alpha virt. eigenvalues --    0.71671   0.72127   0.72319   0.73071   0.73916
 Alpha virt. eigenvalues --    0.74295   0.74708   0.75659   0.76777   0.76783
 Alpha virt. eigenvalues --    0.78858   0.79587   0.80317   0.80876   0.81078
 Alpha virt. eigenvalues --    0.81808   0.83092   0.84111   0.84563   0.85052
 Alpha virt. eigenvalues --    0.85766   0.86481   0.87034   0.87738   0.88233
 Alpha virt. eigenvalues --    0.88646   0.88933   0.90316   0.90838   0.91013
 Alpha virt. eigenvalues --    0.92527   0.93769   0.94541   0.94932   0.95532
 Alpha virt. eigenvalues --    0.97326   0.98560   0.98825   0.99549   1.01453
 Alpha virt. eigenvalues --    1.01705   1.03050   1.03792   1.04185   1.04353
 Alpha virt. eigenvalues --    1.05321   1.05941   1.06526   1.06820   1.06865
 Alpha virt. eigenvalues --    1.07675   1.09202   1.09242   1.10267   1.12144
 Alpha virt. eigenvalues --    1.14104   1.15813   1.16135   1.18180   1.19461
 Alpha virt. eigenvalues --    1.19536   1.22768   1.24068   1.24686   1.25183
 Alpha virt. eigenvalues --    1.25473   1.26794   1.27104   1.29342   1.29771
 Alpha virt. eigenvalues --    1.32487   1.32615   1.35897   1.36308   1.36744
 Alpha virt. eigenvalues --    1.38036   1.39456   1.41423   1.41715   1.42993
 Alpha virt. eigenvalues --    1.44920   1.46045   1.46706   1.47882   1.48746
 Alpha virt. eigenvalues --    1.50889   1.51616   1.54421   1.56931   1.57886
 Alpha virt. eigenvalues --    1.58062   1.61264   1.61690   1.63481   1.63930
 Alpha virt. eigenvalues --    1.65054   1.65242   1.66133   1.66753   1.69783
 Alpha virt. eigenvalues --    1.71867   1.72597   1.73533   1.74461   1.78263
 Alpha virt. eigenvalues --    1.78736   1.79036   1.80532   1.80853   1.82045
 Alpha virt. eigenvalues --    1.83236   1.83793   1.84281   1.85752   1.86370
 Alpha virt. eigenvalues --    1.89855   1.90987   1.92547   1.95387   1.96895
 Alpha virt. eigenvalues --    1.97900   1.99870   2.01425   2.05419   2.05421
 Alpha virt. eigenvalues --    2.06659   2.09076   2.09478   2.11231   2.11585
 Alpha virt. eigenvalues --    2.12842   2.15193   2.16600   2.17461   2.18555
 Alpha virt. eigenvalues --    2.19929   2.22799   2.24043   2.24285   2.26614
 Alpha virt. eigenvalues --    2.28122   2.28579   2.28917   2.30449   2.32268
 Alpha virt. eigenvalues --    2.34776   2.36208   2.37045   2.40541   2.40753
 Alpha virt. eigenvalues --    2.43366   2.43850   2.49845   2.51446   2.53678
 Alpha virt. eigenvalues --    2.53747   2.56177   2.60313   2.60855   2.61732
 Alpha virt. eigenvalues --    2.65586   2.67740   2.70434   2.71145   2.71223
 Alpha virt. eigenvalues --    2.72193   2.75532   2.75593   2.80027   2.82817
 Alpha virt. eigenvalues --    2.85102   2.87737   2.89235   2.91379   2.95460
 Alpha virt. eigenvalues --    2.95642   2.97005   2.98508   3.02212   3.02731
 Alpha virt. eigenvalues --    3.06039   3.06131   3.09578   3.10420   3.11294
 Alpha virt. eigenvalues --    3.14790   3.15567   3.18252   3.19564   3.19742
 Alpha virt. eigenvalues --    3.22559   3.24149   3.24920   3.26349   3.28043
 Alpha virt. eigenvalues --    3.30783   3.30856   3.33652   3.37021   3.39807
 Alpha virt. eigenvalues --    3.43930   3.44632   3.46199   3.48309   3.50007
 Alpha virt. eigenvalues --    3.50079   3.52476   3.53834   3.54810   3.54834
 Alpha virt. eigenvalues --    3.57863   3.60231   3.61095   3.62587   3.64415
 Alpha virt. eigenvalues --    3.64588   3.66650   3.68810   3.70136   3.71349
 Alpha virt. eigenvalues --    3.74475   3.75789   3.80176   3.82746   3.85025
 Alpha virt. eigenvalues --    3.85046   3.85824   3.88437   3.91284   3.91940
 Alpha virt. eigenvalues --    3.92797   3.93869   3.95989   3.96116   3.97655
 Alpha virt. eigenvalues --    4.01678   4.04259   4.05330   4.08853   4.10758
 Alpha virt. eigenvalues --    4.11086   4.15841   4.18191   4.18644   4.20991
 Alpha virt. eigenvalues --    4.24607   4.26031   4.28803   4.31218   4.37208
 Alpha virt. eigenvalues --    4.40305   4.42273   4.44387   4.48077   4.49263
 Alpha virt. eigenvalues --    4.51556   4.53318   4.55179   4.56010   4.59100
 Alpha virt. eigenvalues --    4.62142   4.63216   4.70680   4.71463   4.71928
 Alpha virt. eigenvalues --    4.74693   4.77865   4.78391   4.81600   4.85435
 Alpha virt. eigenvalues --    4.86540   4.93519   4.98770   5.02895   5.04289
 Alpha virt. eigenvalues --    5.07241   5.09898   5.18295   5.23210   5.24051
 Alpha virt. eigenvalues --    5.31906   5.35037   5.40884   5.51699   5.59808
 Alpha virt. eigenvalues --    5.71135   5.76842   5.80226   5.96461   6.10579
 Alpha virt. eigenvalues --    6.15840   6.19509   6.21629   6.29237   6.30174
 Alpha virt. eigenvalues --    6.35795   6.38008   6.44281   6.51508   6.54503
 Alpha virt. eigenvalues --    6.57600   6.69867   6.74847   6.77822   6.79838
 Alpha virt. eigenvalues --    6.82786   6.83247   6.88181   7.03679   7.04115
 Alpha virt. eigenvalues --    7.09481   7.10757   7.24583   7.33079   7.40034
 Alpha virt. eigenvalues --    7.53767   7.74558   8.00250   8.71511  14.62224
 Alpha virt. eigenvalues --   15.10523  15.80884  16.79555  17.21360  17.94178
 Alpha virt. eigenvalues --   18.92683
          Condensed to atoms (all electrons):
               1          2          3          4          5          6
     1  C    5.926804  -0.058238   0.054196  -0.192989   0.292133  -0.003251
     2  C   -0.058238   6.297092   0.113193  -0.214269  -0.111509   0.069268
     3  C    0.054196   0.113193   6.813562  -0.349122  -0.064546   0.005054
     4  C   -0.192989  -0.214269  -0.349122   5.862846   0.016852  -0.299141
     5  S    0.292133  -0.111509  -0.064546   0.016852  16.032326  -0.129968
     6  C   -0.003251   0.069268   0.005054  -0.299141  -0.129968   5.916049
     7  O    0.007356  -0.006126   0.048218  -0.119441  -0.020793   0.078138
     8  O    0.014306  -0.011327   0.053698  -0.049790  -0.072125   0.023085
     9  H    0.427986  -0.109479   0.030381  -0.014233  -0.045418   0.007333
    10  H   -0.110498   0.557461  -0.151523   0.010841   0.006959   0.008258
    11  H    0.004642  -0.219019   0.433553  -0.071672   0.018894  -0.018083
    12  H    0.000737  -0.003088  -0.025546   0.004170   0.013363   0.060141
               7          8          9         10         11         12
     1  C    0.007356   0.014306   0.427986  -0.110498   0.004642   0.000737
     2  C   -0.006126  -0.011327  -0.109479   0.557461  -0.219019  -0.003088
     3  C    0.048218   0.053698   0.030381  -0.151523   0.433553  -0.025546
     4  C   -0.119441  -0.049790  -0.014233   0.010841  -0.071672   0.004170
     5  S   -0.020793  -0.072125  -0.045418   0.006959   0.018894   0.013363
     6  C    0.078138   0.023085   0.007333   0.008258  -0.018083   0.060141
     7  O    9.029656  -0.076822   0.000047  -0.002018   0.006017  -0.091469
     8  O   -0.076822   8.408548  -0.000200  -0.000232   0.003497   0.158554
     9  H    0.000047  -0.000200   0.416525  -0.028847   0.005693  -0.000097
    10  H   -0.002018  -0.000232  -0.028847   0.488466  -0.048901   0.000047
    11  H    0.006017   0.003497   0.005693  -0.048901   0.578178   0.000748
    12  H   -0.091469   0.158554  -0.000097   0.000047   0.000748   0.599872
 Mulliken charges:
               1
     1  C   -0.363184
     2  C   -0.303957
     3  C   -0.961118
     4  C    1.415949
     5  S    0.063833
     6  C    0.283118
     7  O   -0.852764
     8  O   -0.451192
     9  H    0.310309
    10  H    0.269987
    11  H    0.306453
    12  H    0.282568
 Sum of Mulliken charges =   0.00000
 Mulliken charges with hydrogens summed into heavy atoms:
               1
     1  C   -0.052875
     2  C   -0.033971
     3  C   -0.654665
     4  C    1.415949
     5  S    0.063833
     6  C    0.283118
     7  O   -0.852764
     8  O   -0.168624
 Electronic spatial extent (au):  <R**2>=           1043.2548
 Charge=              0.0000 electrons
 Dipole moment (field-independent basis, Debye):
    X=              1.8701    Y=             -1.0436    Z=              0.0009  Tot=              2.1415
 Quadrupole moment (field-independent basis, Debye-Ang):
   XX=            -45.3888   YY=            -52.3366   ZZ=            -55.0299
   XY=              6.5882   XZ=             -0.0002   YZ=             -0.0031
 Traceless Quadrupole moment (field-independent basis, Debye-Ang):
   XX=              5.5296   YY=             -1.4182   ZZ=             -4.1114
   XY=              6.5882   XZ=             -0.0002   YZ=             -0.0031
 Octapole moment (field-independent basis, Debye-Ang**2):
  XXX=            -10.5864  YYY=              1.9772  ZZZ=              0.0021  XYY=              5.9787
  XXY=            -24.9889  XXZ=              0.0158  XZZ=             -9.8366  YZZ=             -1.8537
  YYZ=              0.0011  XYZ=              0.0066
 Hexadecapole moment (field-independent basis, Debye-Ang**3):
 XXXX=           -769.6807 YYYY=           -374.5126 ZZZZ=            -61.8826 XXXY=             69.6292
 XXXZ=             -0.0073 YYYX=             15.0770 YYYZ=             -0.0051 ZZZX=             -0.0035
 ZZZY=              0.0017 XXYY=           -207.4113 XXZZ=           -170.8031 YYZZ=            -80.0613
 XXYZ=             -0.0233 YYXZ=             -0.0005 ZZXY=             -1.8003
 N-N= 4.186345386566D+02 E-N=-2.586409368897D+03  KE= 7.389408635032D+02
 ******************************Gaussian NBO Version 3.1******************************
             N A T U R A L   A T O M I C   O R B I T A L   A N D
          N A T U R A L   B O N D   O R B I T A L   A N A L Y S I S
 ******************************Gaussian NBO Version 3.1******************************
       /RESON  / : Allow strongly delocalized NBO set

 Analyzing the SCF density

 Job title: CYH-186-A_eq00002                                               

 Storage needed:    647906 in NPA,    862770 in NBO (********** available)
 GSVD:  LWork=        2752 too small for GESVD, short by      419420 words or      419420 for optimal perf.


 NATURAL POPULATIONS:  Natural atomic orbital occupancies 
                                                          
   NAO  Atom  No  lang   Type(AO)    Occupancy      Energy
 ----------------------------------------------------------
     1    C    1  S      Cor( 1S)     1.99924     -10.45318
     2    C    1  S      Val( 2S)     1.05664      -0.33083
     3    C    1  S      Ryd( 4S)     0.00119       1.36725
     4    C    1  S      Ryd( 5S)     0.00014       4.39313
     5    C    1  S      Ryd( 3S)     0.00008       1.17604
     6    C    1  px     Val( 2p)     1.12367      -0.14384
     7    C    1  px     Ryd( 3p)     0.00356       1.26323
     8    C    1  px     Ryd( 4p)     0.00006       1.67190
     9    C    1  px     Ryd( 5p)     0.00009       1.75640
    10    C    1  py     Val( 2p)     1.07879      -0.13628
    11    C    1  py     Ryd( 3p)     0.00398       1.24596
    12    C    1  py     Ryd( 4p)     0.00015       1.48475
    13    C    1  py     Ryd( 5p)     0.00006       1.53623
    14    C    1  pz     Val( 2p)     1.09645      -0.17495
    15    C    1  pz     Ryd( 3p)     0.00174       0.80769
    16    C    1  pz     Ryd( 4p)     0.00002       1.18001
    17    C    1  pz     Ryd( 5p)     0.00004       1.22450
    18    C    1  dxy    Ryd( 3d)     0.00262       1.76221
    19    C    1  dxy    Ryd( 5d)     0.00022       3.43174
    20    C    1  dxy    Ryd( 4d)     0.00005       1.82321
    21    C    1  dxz    Ryd( 3d)     0.00168       1.01151
    22    C    1  dxz    Ryd( 5d)     0.00003       3.01698
    23    C    1  dxz    Ryd( 4d)     0.00004       1.17275
    24    C    1  dyz    Ryd( 3d)     0.00148       1.09511
    25    C    1  dyz    Ryd( 5d)     0.00015       2.94972
    26    C    1  dyz    Ryd( 4d)     0.00003       1.14081
    27    C    1  dx2y2  Ryd( 4d)     0.00236       2.06947
    28    C    1  dx2y2  Ryd( 5d)     0.00020       3.37577
    29    C    1  dx2y2  Ryd( 3d)     0.00003       1.48829
    30    C    1  dz2    Ryd( 3d)     0.00231       1.36833
    31    C    1  dz2    Ryd( 5d)     0.00007       3.33525
    32    C    1  dz2    Ryd( 4d)     0.00017       3.00995
    33    C    1  f(0)   Ryd( 5f)     0.00027       3.18686
    34    C    1  f(0)   Ryd( 4f)     0.00002       2.00763
    35    C    1  f(C1)  Ryd( 5f)     0.00029       3.25523
    36    C    1  f(C1)  Ryd( 4f)     0.00001       2.37266
    37    C    1  f(S1)  Ryd( 5f)     0.00024       3.50463
    38    C    1  f(S1)  Ryd( 4f)     0.00005       2.52051
    39    C    1  f(C2)  Ryd( 5f)     0.00001       3.20065
    40    C    1  f(C2)  Ryd( 4f)     0.00004       2.23600
    41    C    1  f(S2)  Ryd( 5f)     0.00003       3.17953
    42    C    1  f(S2)  Ryd( 4f)     0.00003       2.31203
    43    C    1  f(C3)  Ryd( 5f)     0.00008       4.34233
    44    C    1  f(C3)  Ryd( 4f)     0.00007       3.12863
    45    C    1  f(S3)  Ryd( 5f)     0.00017       4.30062
    46    C    1  f(S3)  Ryd( 4f)     0.00009       3.56131
 
    47    C    2  S      Cor( 1S)     1.99925     -10.40233
    48    C    2  S      Val( 2S)     0.97340      -0.23465
    49    C    2  S      Ryd( 4S)     0.00155       1.67476
    50    C    2  S      Ryd( 3S)     0.00004       1.40800
    51    C    2  S      Ryd( 5S)     0.00002       3.33827
    52    C    2  px     Val( 2p)     1.10929      -0.08381
    53    C    2  px     Ryd( 4p)     0.00469       1.49623
    54    C    2  px     Ryd( 3p)     0.00004       1.06539
    55    C    2  px     Ryd( 5p)     0.00003       1.87519
    56    C    2  py     Val( 2p)     1.12219      -0.10363
    57    C    2  py     Ryd( 4p)     0.00386       1.51306
    58    C    2  py     Ryd( 3p)     0.00006       0.94675
    59    C    2  py     Ryd( 5p)     0.00002       1.71073
    60    C    2  pz     Val( 2p)     1.04309      -0.13687
    61    C    2  pz     Ryd( 4p)     0.00099       0.92261
    62    C    2  pz     Ryd( 3p)     0.00005       0.71412
    63    C    2  pz     Ryd( 5p)     0.00001       1.53032
    64    C    2  dxy    Ryd( 3d)     0.00148       1.96069
    65    C    2  dxy    Ryd( 5d)     0.00026       3.53038
    66    C    2  dxy    Ryd( 4d)     0.00004       2.32833
    67    C    2  dxz    Ryd( 4d)     0.00050       1.34260
    68    C    2  dxz    Ryd( 5d)     0.00004       3.01012
    69    C    2  dxz    Ryd( 3d)     0.00004       1.14501
    70    C    2  dyz    Ryd( 4d)     0.00019       1.34728
    71    C    2  dyz    Ryd( 5d)     0.00007       2.99870
    72    C    2  dyz    Ryd( 3d)     0.00003       1.18624
    73    C    2  dx2y2  Ryd( 4d)     0.00151       3.13389
    74    C    2  dx2y2  Ryd( 5d)     0.00032       3.89770
    75    C    2  dx2y2  Ryd( 3d)     0.00003       1.17774
    76    C    2  dz2    Ryd( 3d)     0.00106       1.77828
    77    C    2  dz2    Ryd( 5d)     0.00006       3.58154
    78    C    2  dz2    Ryd( 4d)     0.00012       3.31529
    79    C    2  f(0)   Ryd( 5f)     0.00015       3.40849
    80    C    2  f(0)   Ryd( 4f)     0.00001       2.02246
    81    C    2  f(C1)  Ryd( 5f)     0.00020       3.58142
    82    C    2  f(C1)  Ryd( 4f)     0.00002       2.63282
    83    C    2  f(S1)  Ryd( 5f)     0.00021       3.59076
    84    C    2  f(S1)  Ryd( 4f)     0.00002       2.58541
    85    C    2  f(C2)  Ryd( 5f)     0.00000       3.51272
    86    C    2  f(C2)  Ryd( 4f)     0.00000       2.17626
    87    C    2  f(S2)  Ryd( 5f)     0.00001       3.60236
    88    C    2  f(S2)  Ryd( 4f)     0.00003       2.02509
    89    C    2  f(C3)  Ryd( 4f)     0.00009       4.08282
    90    C    2  f(C3)  Ryd( 5f)     0.00010       4.36230
    91    C    2  f(S3)  Ryd( 4f)     0.00010       4.11212
    92    C    2  f(S3)  Ryd( 5f)     0.00011       4.89003
 
    93    C    3  S      Cor( 1S)     1.99916     -10.40622
    94    C    3  S      Val( 2S)     0.97250      -0.22582
    95    C    3  S      Ryd( 3S)     0.00138       1.74927
    96    C    3  S      Ryd( 5S)     0.00007       2.77859
    97    C    3  S      Ryd( 4S)     0.00002       1.93309
    98    C    3  px     Val( 2p)     1.05371      -0.08051
    99    C    3  px     Ryd( 4p)     0.00389       1.65011
   100    C    3  px     Ryd( 3p)     0.00010       0.90261
   101    C    3  px     Ryd( 5p)     0.00003       1.79414
   102    C    3  py     Val( 2p)     1.16983      -0.09689
   103    C    3  py     Ryd( 4p)     0.00447       1.59266
   104    C    3  py     Ryd( 3p)     0.00006       0.93957
   105    C    3  py     Ryd( 5p)     0.00005       2.32323
   106    C    3  pz     Val( 2p)     0.96637      -0.12901
   107    C    3  pz     Ryd( 4p)     0.00083       0.98238
   108    C    3  pz     Ryd( 3p)     0.00006       0.62573
   109    C    3  pz     Ryd( 5p)     0.00001       1.63223
   110    C    3  dxy    Ryd( 4d)     0.00126       2.95227
   111    C    3  dxy    Ryd( 5d)     0.00022       3.85369
   112    C    3  dxy    Ryd( 3d)     0.00006       2.11827
   113    C    3  dxz    Ryd( 4d)     0.00040       1.46653
   114    C    3  dxz    Ryd( 5d)     0.00004       2.92457
   115    C    3  dxz    Ryd( 3d)     0.00004       1.35713
   116    C    3  dyz    Ryd( 4d)     0.00023       1.44828
   117    C    3  dyz    Ryd( 5d)     0.00012       2.98360
   118    C    3  dyz    Ryd( 3d)     0.00006       1.14749
   119    C    3  dx2y2  Ryd( 4d)     0.00146       2.69698
   120    C    3  dx2y2  Ryd( 5d)     0.00039       3.68573
   121    C    3  dx2y2  Ryd( 3d)     0.00004       2.00674
   122    C    3  dz2    Ryd( 3d)     0.00095       1.89046
   123    C    3  dz2    Ryd( 4d)     0.00007       3.37360
   124    C    3  dz2    Ryd( 5d)     0.00007       3.39589
   125    C    3  f(0)   Ryd( 5f)     0.00014       3.27846
   126    C    3  f(0)   Ryd( 4f)     0.00004       2.18933
   127    C    3  f(C1)  Ryd( 5f)     0.00025       3.51824
   128    C    3  f(C1)  Ryd( 4f)     0.00003       3.05137
   129    C    3  f(S1)  Ryd( 5f)     0.00016       3.52239
   130    C    3  f(S1)  Ryd( 4f)     0.00004       2.68943
   131    C    3  f(C2)  Ryd( 5f)     0.00001       3.45184
   132    C    3  f(C2)  Ryd( 4f)     0.00003       2.28832
   133    C    3  f(S2)  Ryd( 5f)     0.00001       3.42662
   134    C    3  f(S2)  Ryd( 4f)     0.00002       2.21395
   135    C    3  f(C3)  Ryd( 4f)     0.00016       4.08599
   136    C    3  f(C3)  Ryd( 5f)     0.00004       5.85260
   137    C    3  f(S3)  Ryd( 4f)     0.00005       3.94569
   138    C    3  f(S3)  Ryd( 5f)     0.00013       4.49293
 
   139    C    4  S      Cor( 1S)     1.99898     -10.45531
   140    C    4  S      Val( 2S)     1.00598      -0.28981
   141    C    4  S      Ryd( 3S)     0.00186       1.49721
   142    C    4  S      Ryd( 5S)     0.00015       4.32173
   143    C    4  S      Ryd( 4S)     0.00005       2.04495
   144    C    4  px     Val( 2p)     1.06201      -0.13923
   145    C    4  px     Ryd( 4p)     0.00409       1.89160
   146    C    4  px     Ryd( 5p)     0.00010       2.94080
   147    C    4  px     Ryd( 3p)     0.00009       0.77024
   148    C    4  py     Val( 2p)     1.06064      -0.16055
   149    C    4  py     Ryd( 4p)     0.00676       1.45195
   150    C    4  py     Ryd( 5p)     0.00014       2.82109
   151    C    4  py     Ryd( 3p)     0.00011       0.67686
   152    C    4  pz     Val( 2p)     1.19059      -0.17675
   153    C    4  pz     Ryd( 4p)     0.00190       0.77472
   154    C    4  pz     Ryd( 5p)     0.00010       2.09793
   155    C    4  pz     Ryd( 3p)     0.00003       0.46301
   156    C    4  dxy    Ryd( 3d)     0.00159       2.63484
   157    C    4  dxy    Ryd( 5d)     0.00044       3.86691
   158    C    4  dxy    Ryd( 4d)     0.00011       3.15755
   159    C    4  dxz    Ryd( 3d)     0.00033       1.24906
   160    C    4  dxz    Ryd( 5d)     0.00003       3.27256
   161    C    4  dxz    Ryd( 4d)     0.00013       1.52141
   162    C    4  dyz    Ryd( 3d)     0.00249       1.05860
   163    C    4  dyz    Ryd( 5d)     0.00016       3.25147
   164    C    4  dyz    Ryd( 4d)     0.00003       1.35505
   165    C    4  dx2y2  Ryd( 4d)     0.00156       2.78986
   166    C    4  dx2y2  Ryd( 5d)     0.00031       3.81473
   167    C    4  dx2y2  Ryd( 3d)     0.00005       2.37859
   168    C    4  dz2    Ryd( 3d)     0.00183       1.50033
   169    C    4  dz2    Ryd( 4d)     0.00020       3.79420
   170    C    4  dz2    Ryd( 5d)     0.00009       3.82333
   171    C    4  f(0)   Ryd( 4f)     0.00231       1.31211
   172    C    4  f(0)   Ryd( 5f)     0.00005       3.34844
   173    C    4  f(C1)  Ryd( 4f)     0.00135       1.77883
   174    C    4  f(C1)  Ryd( 5f)     0.00023       3.50418
   175    C    4  f(S1)  Ryd( 4f)     0.00138       1.50613
   176    C    4  f(S1)  Ryd( 5f)     0.00013       3.39900
   177    C    4  f(C2)  Ryd( 4f)     0.00094       1.28313
   178    C    4  f(C2)  Ryd( 5f)     0.00006       3.37590
   179    C    4  f(S2)  Ryd( 4f)     0.00053       1.27870
   180    C    4  f(S2)  Ryd( 5f)     0.00006       3.37258
   181    C    4  f(C3)  Ryd( 4f)     0.00091       1.76453
   182    C    4  f(C3)  Ryd( 5f)     0.00015       3.87530
   183    C    4  f(S3)  Ryd( 4f)     0.00138       1.95460
   184    C    4  f(S3)  Ryd( 5f)     0.00021       4.06166
 
   185    S    5  S      Cor( 1S)     2.00000     -88.71311
   186    S    5  S      Cor( 2S)     1.99930      -9.30891
   187    S    5  S      Val( 3S)     1.61189      -0.78046
   188    S    5  S      Ryd( 5S)     0.00344       1.75154
   189    S    5  S      Ryd( 4S)     0.00010       1.05065
   190    S    5  S      Ryd( 6S)     0.00002       4.79756
   191    S    5  px     Cor( 2p)     1.99988      -6.22468
   192    S    5  px     Val( 3p)     0.92694      -0.18449
   193    S    5  px     Ryd( 4p)     0.00367       1.21132
   194    S    5  px     Ryd( 5p)     0.00010       1.25930
   195    S    5  px     Ryd( 6p)     0.00008       1.67234
   196    S    5  py     Cor( 2p)     1.99985      -6.22341
   197    S    5  py     Val( 3p)     1.33568      -0.24056
   198    S    5  py     Ryd( 4p)     0.00118       1.08171
   199    S    5  py     Ryd( 5p)     0.00015       1.66699
   200    S    5  py     Ryd( 6p)     0.00004       1.88088
   201    S    5  pz     Cor( 2p)     1.99994      -6.22456
   202    S    5  pz     Val( 3p)     1.58621      -0.29366
   203    S    5  pz     Ryd( 5p)     0.00245       0.87061
   204    S    5  pz     Ryd( 4p)     0.00003       0.72575
   205    S    5  pz     Ryd( 6p)     0.00001       1.55983
   206    S    5  dxy    Ryd( 4d)     0.00769       1.58839
   207    S    5  dxy    Ryd( 3d)     0.00016       1.19229
   208    S    5  dxy    Ryd( 5d)     0.00013       2.08819
   209    S    5  dxz    Ryd( 4d)     0.00688       0.85849
   210    S    5  dxz    Ryd( 3d)     0.00009       0.75720
   211    S    5  dxz    Ryd( 5d)     0.00003       1.78471
   212    S    5  dyz    Ryd( 4d)     0.00289       0.91708
   213    S    5  dyz    Ryd( 3d)     0.00038       0.69370
   214    S    5  dyz    Ryd( 5d)     0.00004       1.73413
   215    S    5  dx2y2  Ryd( 4d)     0.00221       1.31434
   216    S    5  dx2y2  Ryd( 3d)     0.00032       1.19942
   217    S    5  dx2y2  Ryd( 5d)     0.00008       2.12368
   218    S    5  dz2    Ryd( 3d)     0.00567       1.00222
   219    S    5  dz2    Ryd( 4d)     0.00016       1.28770
   220    S    5  dz2    Ryd( 5d)     0.00005       2.01318
   221    S    5  f(0)   Ryd( 4f)     0.00014       1.79171
   222    S    5  f(0)   Ryd( 5f)     0.00008       1.82205
   223    S    5  f(C1)  Ryd( 4f)     0.00007       2.04044
   224    S    5  f(C1)  Ryd( 5f)     0.00005       2.10813
   225    S    5  f(S1)  Ryd( 5f)     0.00009       2.17479
   226    S    5  f(S1)  Ryd( 4f)     0.00003       1.94493
   227    S    5  f(C2)  Ryd( 4f)     0.00005       1.76461
   228    S    5  f(C2)  Ryd( 5f)     0.00001       1.87397
   229    S    5  f(S2)  Ryd( 5f)     0.00025       1.90589
   230    S    5  f(S2)  Ryd( 4f)     0.00003       1.88668
   231    S    5  f(C3)  Ryd( 5f)     0.00009       2.44409
   232    S    5  f(C3)  Ryd( 4f)     0.00005       2.29532
   233    S    5  f(S3)  Ryd( 5f)     0.00013       2.51181
   234    S    5  f(S3)  Ryd( 4f)     0.00002       2.16495
 
   235    C    6  S      Cor( 1S)     1.99927     -10.56282
   236    C    6  S      Val( 2S)     0.78013      -0.14548
   237    C    6  S      Ryd( 4S)     0.00356       1.87640
   238    C    6  S      Ryd( 3S)     0.00022       1.43252
   239    C    6  S      Ryd( 5S)     0.00004       2.43912
   240    C    6  px     Val( 2p)     0.92798      -0.07535
   241    C    6  px     Ryd( 4p)     0.00690       1.52807
   242    C    6  px     Ryd( 3p)     0.00019       0.66199
   243    C    6  px     Ryd( 5p)     0.00004       1.88651
   244    C    6  py     Val( 2p)     0.72598      -0.02224
   245    C    6  py     Ryd( 4p)     0.01366       1.53340
   246    C    6  py     Ryd( 3p)     0.00011       0.74684
   247    C    6  py     Ryd( 5p)     0.00006       2.11255
   248    C    6  pz     Val( 2p)     0.75304      -0.12955
   249    C    6  pz     Ryd( 4p)     0.00066       1.09606
   250    C    6  pz     Ryd( 3p)     0.00010       0.44044
   251    C    6  pz     Ryd( 5p)     0.00008       1.22639
   252    C    6  dxy    Ryd( 4d)     0.00068       3.03526
   253    C    6  dxy    Ryd( 3d)     0.00043       2.68285
   254    C    6  dxy    Ryd( 5d)     0.00009       3.21800
   255    C    6  dxz    Ryd( 5d)     0.00117       2.26236
   256    C    6  dxz    Ryd( 3d)     0.00008       1.93796
   257    C    6  dxz    Ryd( 4d)     0.00005       2.12180
   258    C    6  dyz    Ryd( 5d)     0.00188       2.38093
   259    C    6  dyz    Ryd( 3d)     0.00002       2.03996
   260    C    6  dyz    Ryd( 4d)     0.00007       2.35852
   261    C    6  dx2y2  Ryd( 4d)     0.00250       2.99858
   262    C    6  dx2y2  Ryd( 3d)     0.00013       2.48965
   263    C    6  dx2y2  Ryd( 5d)     0.00008       3.45897
   264    C    6  dz2    Ryd( 5d)     0.00031       3.27022
   265    C    6  dz2    Ryd( 3d)     0.00043       2.48644
   266    C    6  dz2    Ryd( 4d)     0.00010       2.88230
   267    C    6  f(0)   Ryd( 5f)     0.00016       3.14870
   268    C    6  f(0)   Ryd( 4f)     0.00003       2.67996
   269    C    6  f(C1)  Ryd( 5f)     0.00012       3.36821
   270    C    6  f(C1)  Ryd( 4f)     0.00003       3.17058
   271    C    6  f(S1)  Ryd( 5f)     0.00008       3.35859
   272    C    6  f(S1)  Ryd( 4f)     0.00004       3.29212
   273    C    6  f(C2)  Ryd( 5f)     0.00001       3.11900
   274    C    6  f(C2)  Ryd( 4f)     0.00005       2.86669
   275    C    6  f(S2)  Ryd( 5f)     0.00001       3.35144
   276    C    6  f(S2)  Ryd( 4f)     0.00004       2.89138
   277    C    6  f(C3)  Ryd( 4f)     0.00008       4.61118
   278    C    6  f(C3)  Ryd( 5f)     0.00003       7.38864
   279    C    6  f(S3)  Ryd( 4f)     0.00011       4.11104
   280    C    6  f(S3)  Ryd( 5f)     0.00004       4.41736
 
   281    O    7  S      Cor( 1S)     1.99978     -19.33311
   282    O    7  S      Val( 2S)     1.70191      -1.00608
   283    O    7  S      Ryd( 4S)     0.00069       2.44949
   284    O    7  S      Ryd( 3S)     0.00020       1.86434
   285    O    7  S      Ryd( 5S)     0.00001       8.88066
   286    O    7  px     Val( 2p)     1.73423      -0.34354
   287    O    7  px     Ryd( 4p)     0.00141       1.31809
   288    O    7  px     Ryd( 3p)     0.00011       0.81018
   289    O    7  px     Ryd( 5p)     0.00004       4.77165
   290    O    7  py     Val( 2p)     1.66254      -0.34674
   291    O    7  py     Ryd( 4p)     0.00135       1.38279
   292    O    7  py     Ryd( 3p)     0.00007       0.67511
   293    O    7  py     Ryd( 5p)     0.00005       5.07993
   294    O    7  pz     Val( 2p)     1.46911      -0.29602
   295    O    7  pz     Ryd( 4p)     0.00049       1.00962
   296    O    7  pz     Ryd( 3p)     0.00002       0.57265
   297    O    7  pz     Ryd( 5p)     0.00001       4.15487
   298    O    7  dxy    Ryd( 3d)     0.00839       2.01855
   299    O    7  dxy    Ryd( 4d)     0.00012       3.28044
   300    O    7  dxy    Ryd( 5d)     0.00002       6.56263
   301    O    7  dxz    Ryd( 3d)     0.00251       1.47010
   302    O    7  dxz    Ryd( 4d)     0.00002       1.68712
   303    O    7  dxz    Ryd( 5d)     0.00002       6.39611
   304    O    7  dyz    Ryd( 3d)     0.00434       1.52804
   305    O    7  dyz    Ryd( 4d)     0.00003       1.69717
   306    O    7  dyz    Ryd( 5d)     0.00002       6.36892
   307    O    7  dx2y2  Ryd( 3d)     0.00586       1.78169
   308    O    7  dx2y2  Ryd( 4d)     0.00006       2.04403
   309    O    7  dx2y2  Ryd( 5d)     0.00006       6.49051
   310    O    7  dz2    Ryd( 3d)     0.00274       1.61992
   311    O    7  dz2    Ryd( 4d)     0.00007       2.42565
   312    O    7  dz2    Ryd( 5d)     0.00000       6.46328
   313    O    7  f(0)   Ryd( 4f)     0.00014       3.09942
   314    O    7  f(0)   Ryd( 5f)     0.00001       5.46472
   315    O    7  f(C1)  Ryd( 4f)     0.00010       3.30068
   316    O    7  f(C1)  Ryd( 5f)     0.00002       5.57043
   317    O    7  f(S1)  Ryd( 4f)     0.00010       3.45133
   318    O    7  f(S1)  Ryd( 5f)     0.00001       5.69821
   319    O    7  f(C2)  Ryd( 4f)     0.00003       3.04080
   320    O    7  f(C2)  Ryd( 5f)     0.00001       5.70909
   321    O    7  f(S2)  Ryd( 4f)     0.00033       3.17178
   322    O    7  f(S2)  Ryd( 5f)     0.00001       5.57660
   323    O    7  f(C3)  Ryd( 4f)     0.00037       3.96382
   324    O    7  f(C3)  Ryd( 5f)     0.00001       5.99875
   325    O    7  f(S3)  Ryd( 4f)     0.00047       3.59516
   326    O    7  f(S3)  Ryd( 5f)     0.00002       5.89701
 
   327    O    8  S      Cor( 1S)     1.99978     -19.46440
   328    O    8  S      Val( 2S)     1.67486      -1.04338
   329    O    8  S      Ryd( 3S)     0.00107       1.61146
   330    O    8  S      Ryd( 4S)     0.00003       1.85408
   331    O    8  S      Ryd( 5S)     0.00001      10.47520
   332    O    8  px     Val( 2p)     1.54837      -0.38112
   333    O    8  px     Ryd( 4p)     0.00078       1.13110
   334    O    8  px     Ryd( 3p)     0.00010       1.11402
   335    O    8  px     Ryd( 5p)     0.00004       4.87824
   336    O    8  py     Val( 2p)     1.61499      -0.40386
   337    O    8  py     Ryd( 4p)     0.00082       0.94260
   338    O    8  py     Ryd( 3p)     0.00010       0.80326
   339    O    8  py     Ryd( 5p)     0.00008       4.83941
   340    O    8  pz     Val( 2p)     1.84139      -0.42148
   341    O    8  pz     Ryd( 4p)     0.00096       0.83488
   342    O    8  pz     Ryd( 3p)     0.00001       0.63868
   343    O    8  pz     Ryd( 5p)     0.00001       4.01859
   344    O    8  dxy    Ryd( 3d)     0.00393       1.65705
   345    O    8  dxy    Ryd( 4d)     0.00017       2.41647
   346    O    8  dxy    Ryd( 5d)     0.00005       6.58670
   347    O    8  dxz    Ryd( 3d)     0.00106       1.19131
   348    O    8  dxz    Ryd( 4d)     0.00007       1.94228
   349    O    8  dxz    Ryd( 5d)     0.00001       6.34941
   350    O    8  dyz    Ryd( 3d)     0.00395       1.36245
   351    O    8  dyz    Ryd( 4d)     0.00005       1.72128
   352    O    8  dyz    Ryd( 5d)     0.00003       6.39374
   353    O    8  dx2y2  Ryd( 3d)     0.00638       2.03317
   354    O    8  dx2y2  Ryd( 4d)     0.00008       2.25817
   355    O    8  dx2y2  Ryd( 5d)     0.00006       6.91398
   356    O    8  dz2    Ryd( 3d)     0.00302       1.48860
   357    O    8  dz2    Ryd( 4d)     0.00014       2.36012
   358    O    8  dz2    Ryd( 5d)     0.00002       6.59973
   359    O    8  f(0)   Ryd( 4f)     0.00056       2.75786
   360    O    8  f(0)   Ryd( 5f)     0.00001       5.93142
   361    O    8  f(C1)  Ryd( 4f)     0.00020       3.25952
   362    O    8  f(C1)  Ryd( 5f)     0.00002       6.16203
   363    O    8  f(S1)  Ryd( 4f)     0.00022       3.28585
   364    O    8  f(S1)  Ryd( 5f)     0.00001       6.06654
   365    O    8  f(C2)  Ryd( 4f)     0.00001       2.87739
   366    O    8  f(C2)  Ryd( 5f)     0.00001       6.05568
   367    O    8  f(S2)  Ryd( 4f)     0.00011       2.76953
   368    O    8  f(S2)  Ryd( 5f)     0.00001       5.98170
   369    O    8  f(C3)  Ryd( 4f)     0.00020       4.24364
   370    O    8  f(C3)  Ryd( 5f)     0.00006       6.51800
   371    O    8  f(S3)  Ryd( 4f)     0.00005       3.71431
   372    O    8  f(S3)  Ryd( 5f)     0.00002       6.36791
 
   373    H    9  S      Val( 1S)     0.76615       0.04767
   374    H    9  S      Ryd( 4S)     0.00040       1.81193
   375    H    9  S      Ryd( 2S)     0.00009       0.62762
   376    H    9  S      Ryd( 3S)     0.00003       1.28484
   377    H    9  px     Ryd( 2p)     0.00090       0.91547
   378    H    9  px     Ryd( 4p)     0.00005       4.65324
   379    H    9  px     Ryd( 3p)     0.00010       4.13458
   380    H    9  py     Ryd( 2p)     0.00084       0.75409
   381    H    9  py     Ryd( 3p)     0.00010       2.69535
   382    H    9  py     Ryd( 4p)     0.00004       4.01263
   383    H    9  pz     Ryd( 2p)     0.00022       0.64112
   384    H    9  pz     Ryd( 3p)     0.00007       1.74208
   385    H    9  pz     Ryd( 4p)     0.00007       3.87684
   386    H    9  dxy    Ryd( 3d)     0.00014       2.18263
   387    H    9  dxy    Ryd( 4d)     0.00002       4.13454
   388    H    9  dxz    Ryd( 3d)     0.00002       1.89986
   389    H    9  dxz    Ryd( 4d)     0.00001       3.56343
   390    H    9  dyz    Ryd( 3d)     0.00004       1.78518
   391    H    9  dyz    Ryd( 4d)     0.00001       3.23121
   392    H    9  dx2y2  Ryd( 3d)     0.00008       2.17237
   393    H    9  dx2y2  Ryd( 4d)     0.00003       4.01622
   394    H    9  dz2    Ryd( 3d)     0.00003       2.02704
   395    H    9  dz2    Ryd( 4d)     0.00004       3.57311
 
   396    H   10  S      Val( 1S)     0.77158       0.05092
   397    H   10  S      Ryd( 4S)     0.00034       1.74334
   398    H   10  S      Ryd( 3S)     0.00015       1.10900
   399    H   10  S      Ryd( 2S)     0.00001       1.02967
   400    H   10  px     Ryd( 2p)     0.00053       0.91377
   401    H   10  px     Ryd( 4p)     0.00010       4.31760
   402    H   10  px     Ryd( 3p)     0.00005       3.36733
   403    H   10  py     Ryd( 2p)     0.00068       0.93014
   404    H   10  py     Ryd( 4p)     0.00009       4.29367
   405    H   10  py     Ryd( 3p)     0.00007       3.41718
   406    H   10  pz     Ryd( 2p)     0.00044       0.67712
   407    H   10  pz     Ryd( 4p)     0.00007       3.87685
   408    H   10  pz     Ryd( 3p)     0.00002       1.76489
   409    H   10  dxy    Ryd( 3d)     0.00018       2.32754
   410    H   10  dxy    Ryd( 4d)     0.00001       4.06209
   411    H   10  dxz    Ryd( 3d)     0.00003       1.95253
   412    H   10  dxz    Ryd( 4d)     0.00001       3.34096
   413    H   10  dyz    Ryd( 3d)     0.00001       1.94229
   414    H   10  dyz    Ryd( 4d)     0.00001       3.31750
   415    H   10  dx2y2  Ryd( 3d)     0.00003       2.22216
   416    H   10  dx2y2  Ryd( 4d)     0.00004       4.00870
   417    H   10  dz2    Ryd( 3d)     0.00002       2.10279
   418    H   10  dz2    Ryd( 4d)     0.00003       3.50273
 
   419    H   11  S      Val( 1S)     0.75775       0.06105
   420    H   11  S      Ryd( 4S)     0.00042       1.82728
   421    H   11  S      Ryd( 2S)     0.00014       0.90558
   422    H   11  S      Ryd( 3S)     0.00003       1.39213
   423    H   11  px     Ryd( 2p)     0.00047       0.91042
   424    H   11  px     Ryd( 4p)     0.00005       4.13649
   425    H   11  px     Ryd( 3p)     0.00010       2.72844
   426    H   11  py     Ryd( 2p)     0.00091       0.86922
   427    H   11  py     Ryd( 4p)     0.00017       4.59216
   428    H   11  py     Ryd( 3p)     0.00006       4.16992
   429    H   11  pz     Ryd( 2p)     0.00028       0.58398
   430    H   11  pz     Ryd( 4p)     0.00006       3.86942
   431    H   11  pz     Ryd( 3p)     0.00009       1.88665
   432    H   11  dxy    Ryd( 3d)     0.00009       2.09667
   433    H   11  dxy    Ryd( 4d)     0.00003       4.29363
   434    H   11  dxz    Ryd( 3d)     0.00005       1.57407
   435    H   11  dxz    Ryd( 4d)     0.00000       3.47552
   436    H   11  dyz    Ryd( 3d)     0.00001       1.71334
   437    H   11  dyz    Ryd( 4d)     0.00001       3.86232
   438    H   11  dx2y2  Ryd( 3d)     0.00010       2.17829
   439    H   11  dx2y2  Ryd( 4d)     0.00004       4.33345
   440    H   11  dz2    Ryd( 3d)     0.00003       1.98119
   441    H   11  dz2    Ryd( 4d)     0.00003       3.77552
 
   442    H   12  S      Val( 1S)     0.49453       0.12649
   443    H   12  S      Ryd( 4S)     0.00108       1.72684
   444    H   12  S      Ryd( 3S)     0.00019       1.54831
   445    H   12  S      Ryd( 2S)     0.00009       0.99417
   446    H   12  px     Ryd( 2p)     0.00024       2.86929
   447    H   12  px     Ryd( 4p)     0.00036       3.52003
   448    H   12  px     Ryd( 3p)     0.00003       3.12503
   449    H   12  py     Ryd( 2p)     0.00026       1.85548
   450    H   12  py     Ryd( 3p)     0.00004       2.83583
   451    H   12  py     Ryd( 4p)     0.00002       3.10386
   452    H   12  pz     Ryd( 2p)     0.00055       1.64057
   453    H   12  pz     Ryd( 3p)     0.00004       2.58044
   454    H   12  pz     Ryd( 4p)     0.00001       2.84426
   455    H   12  dxy    Ryd( 3d)     0.00006       1.19177
   456    H   12  dxy    Ryd( 4d)     0.00002       4.39611
   457    H   12  dxz    Ryd( 3d)     0.00009       1.10340
   458    H   12  dxz    Ryd( 4d)     0.00000       4.27883
   459    H   12  dyz    Ryd( 3d)     0.00005       1.11535
   460    H   12  dyz    Ryd( 4d)     0.00000       3.79739
   461    H   12  dx2y2  Ryd( 3d)     0.00004       1.82343
   462    H   12  dx2y2  Ryd( 4d)     0.00001       4.64646
   463    H   12  dz2    Ryd( 3d)     0.00010       1.60059
   464    H   12  dz2    Ryd( 4d)     0.00001       4.06617

 WARNING:  1 low occupancy (<1.9990e) core orbital  found on  C    4

 WARNING:  Population inversion found on atom  C    1
           Population inversion found on atom  C    2
           Population inversion found on atom  C    3
           Population inversion found on atom  C    4
           Population inversion found on atom  S    5
           Population inversion found on atom  C    6
           Population inversion found on atom  O    7
           Population inversion found on atom  O    8
           Population inversion found on atom  H    9
           Population inversion found on atom  H   10
           Population inversion found on atom  H   11
           Population inversion found on atom  H   12


 Summary of Natural Population Analysis:                  
                                                          
                                       Natural Population 
                Natural  -----------------------------------------------
    Atom  No    Charge         Core      Valence    Rydberg      Total
 -----------------------------------------------------------------------
      C    1   -0.37875      1.99924     4.35554    0.02396     6.37875
      C    2   -0.26538      1.99925     4.24797    0.01816     6.26538
      C    3   -0.17906      1.99916     4.16241    0.01749     6.17906
      C    4   -0.35263      1.99898     4.31921    0.03444     6.35263
      S    5    0.50118      9.99896     5.46072    0.03914    15.49882
      C    6    0.77912      1.99927     3.18713    0.03448     5.22088
      O    7   -0.59789      1.99978     6.56779    0.03033     8.59789
      O    8   -0.70389      1.99978     6.67961    0.02450     8.70389
      H    9    0.23054      0.00000     0.76615    0.00331     0.76946
      H   10    0.22549      0.00000     0.77158    0.00292     0.77451
      H   11    0.23908      0.00000     0.75775    0.00316     0.76092
      H   12    0.50219      0.00000     0.49453    0.00328     0.49781
 =======================================================================
   * Total *    0.00000     23.99442    41.77040    0.23518    66.00000

                                 Natural Population      
 --------------------------------------------------------
   Core                      23.99442 ( 99.9768% of  24)
   Valence                   41.77040 ( 99.4533% of  42)
   Natural Minimal Basis     65.76482 ( 99.6437% of  66)
   Natural Rydberg Basis      0.23518 (  0.3563% of  66)
 --------------------------------------------------------

    Atom  No          Natural Electron Configuration
 ----------------------------------------------------------------------------
      C    1      [core]2S( 1.06)2p( 3.30)3p( 0.01)3d( 0.01)
      C    2      [core]2S( 0.97)2p( 3.27)4p( 0.01)
      C    3      [core]2S( 0.97)2p( 3.19)4p( 0.01)
      C    4      [core]2S( 1.01)2p( 3.31)3d( 0.01)4p( 0.01)4f( 0.01)
      S    5      [core]3S( 1.61)3p( 3.85)3d( 0.01)4d( 0.02)
      C    6      [core]2S( 0.78)2p( 2.41)4p( 0.02)
      O    7      [core]2S( 1.70)2p( 4.87)3d( 0.02)
      O    8      [core]2S( 1.67)2p( 5.00)3d( 0.02)
      H    9            1S( 0.77)
      H   10            1S( 0.77)
      H   11            1S( 0.76)
      H   12            1S( 0.49)


 NATURAL BOND ORBITAL ANALYSIS:

                       Occupancies       Lewis Structure    Low   High
           Occ.    -------------------  -----------------   occ   occ
  Cycle   Thresh.   Lewis   Non-Lewis     CR  BD  3C  LP    (L)   (NL)   Dev
 =============================================================================
   1(1)    1.90    63.22440   2.77560     12  15   0   6     7      5    0.59
   2(2)    1.90    63.22440   2.77560     12  15   0   6     7      5    0.59
   3(1)    1.80    64.10160   1.89840     12  15   0   6     1      3    0.53
   4(2)    1.80    64.66035   1.33965     12  15   0   6     1      3    0.31
   5(3)    1.80    64.66035   1.33965     12  15   0   6     1      3    0.31
   6(1)    1.70    64.66035   1.33965     12  15   0   6     1      3    0.31
   7(2)    1.70    64.19684   1.80316     12  15   0   6     1      3    0.59
   8(3)    1.70    64.66035   1.33965     12  15   0   6     1      3    0.31
   9(1)    1.60    64.66035   1.33965     12  15   0   6     1      3    0.31
  10(2)    1.60    64.66035   1.33965     12  15   0   6     1      3    0.31
  11(1)    1.50    64.17095   1.82905     12  14   0   7     0      4    0.73
  12(2)    1.50    64.17095   1.82905     12  14   0   7     0      4    0.73
  13(1)    1.70    64.66035   1.33965     12  15   0   6     1      3    0.31
 -----------------------------------------------------------------------------

 Structure accepted: RESONANCE keyword permits strongly delocalized structure

 WARNING:  1 low occupancy (<1.9990e) core orbital  found on  C    4

 --------------------------------------------------------
   Core                     23.99444 ( 99.977% of  24)
   Valence Lewis            40.66591 ( 96.824% of  42)
  ==================       ============================
   Total Lewis              64.66035 ( 97.970% of  66)
  -----------------------------------------------------
   Valence non-Lewis         1.22052 (  1.849% of  66)
   Rydberg non-Lewis         0.11913 (  0.180% of  66)
  ==================       ============================
   Total non-Lewis           1.33965 (  2.030% of  66)
 --------------------------------------------------------


       (Occupancy)   Bond orbital/ Coefficients/ Hybrids
 ---------------------------------------------------------------------------------
     1. (1.98697) BD ( 1) C   1 - C   2  
                ( 50.10%)   0.7078* C   1 s( 39.78%)p 1.51( 60.06%)d 0.00(  0.14%)
                                                  f 0.00(  0.03%)
                                            0.0001  0.6306 -0.0105  0.0036  0.0027
                                           -0.1020 -0.0308 -0.0011  0.0012  0.7671
                                           -0.0284  0.0044  0.0033 -0.0001  0.0000
                                            0.0000  0.0000 -0.0136 -0.0030 -0.0040
                                            0.0000  0.0000  0.0000  0.0000  0.0000
                                            0.0000 -0.0203 -0.0105 -0.0018 -0.0250
                                           -0.0043 -0.0032  0.0000  0.0000  0.0033
                                           -0.0013 -0.0107  0.0062  0.0000  0.0000
                                            0.0000  0.0000  0.0068  0.0015 -0.0062
                                            0.0048
                ( 49.90%)   0.7064* C   2 s( 35.07%)p 1.85( 64.79%)d 0.00(  0.12%)
                                                  f 0.00(  0.02%)
                                           -0.0001  0.5919 -0.0198 -0.0001 -0.0001
                                            0.2023 -0.0329  0.0003 -0.0001 -0.7782
                                            0.0145  0.0025 -0.0004  0.0001  0.0000
                                            0.0000  0.0000 -0.0069  0.0017  0.0028
                                            0.0000  0.0000  0.0000  0.0000  0.0000
                                            0.0000 -0.0237 -0.0084  0.0008 -0.0217
                                           -0.0018 -0.0003  0.0000  0.0000 -0.0031
                                            0.0011  0.0114 -0.0006  0.0000  0.0000
                                            0.0000  0.0000 -0.0053  0.0051  0.0051
                                            0.0048
     2. (1.83483) BD ( 2) C   1 - C   2  
                ( 51.79%)   0.7197* C   1 s(  0.00%)p 1.00( 99.86%)d 0.00(  0.11%)
                                                  f 0.00(  0.03%)
                                            0.0000  0.0000  0.0000  0.0000  0.0000
                                           -0.0003  0.0000  0.0000  0.0000  0.0001
                                            0.0000  0.0000  0.0000  0.9992  0.0122
                                           -0.0020  0.0045  0.0000  0.0000  0.0000
                                           -0.0288  0.0051 -0.0026  0.0111  0.0113
                                           -0.0029  0.0000  0.0000  0.0000  0.0000
                                            0.0000  0.0000 -0.0153  0.0002  0.0000
                                            0.0000  0.0000  0.0000  0.0010  0.0058
                                            0.0014  0.0032  0.0000  0.0000  0.0000
                                            0.0000
                ( 48.21%)   0.6943* C   2 s(  0.00%)p 1.00( 99.95%)d 0.00(  0.03%)
                                                  f 0.00(  0.02%)
                                            0.0000  0.0000  0.0000  0.0000  0.0000
                                           -0.0003  0.0000  0.0000  0.0000  0.0001
                                            0.0000  0.0000  0.0000  0.9997  0.0069
                                            0.0057  0.0015  0.0000  0.0000  0.0000
                                            0.0028 -0.0053 -0.0032 -0.0137 -0.0086
                                           -0.0011  0.0000  0.0000  0.0000  0.0000
                                            0.0000  0.0000 -0.0120 -0.0009  0.0000
                                            0.0000  0.0000  0.0000 -0.0017  0.0003
                                           -0.0009  0.0031  0.0000  0.0000  0.0000
                                            0.0000
     3. (1.97992) BD ( 1) C   1 - S   5  
                ( 51.85%)   0.7201* C   1 s( 26.99%)p 2.69( 72.62%)d 0.01(  0.36%)
                                                  f 0.00(  0.03%)
                                           -0.0001  0.5195  0.0007 -0.0090  0.0011
                                           -0.6771 -0.0109  0.0014  0.0057 -0.5157
                                            0.0397  0.0058  0.0039 -0.0002  0.0000
                                            0.0000  0.0000  0.0365  0.0021  0.0001
                                            0.0000  0.0000  0.0000  0.0000  0.0000
                                            0.0000  0.0290 -0.0008  0.0016 -0.0369
                                            0.0036  0.0021  0.0000  0.0000  0.0119
                                            0.0014  0.0080 -0.0023  0.0000  0.0000
                                            0.0000  0.0000 -0.0016 -0.0072 -0.0084
                                           -0.0006
                ( 48.15%)   0.6939* S   5 s( 19.04%)p 4.22( 80.24%)d 0.04(  0.72%)
                                                  f 0.00(  0.01%)
                                            0.0000  0.0000  0.4345 -0.0391  0.0018
                                            0.0006  0.0000  0.7968  0.0455 -0.0030
                                            0.0020  0.0000  0.4064 -0.0128 -0.0030
                                           -0.0001  0.0000  0.0001  0.0000  0.0000
                                            0.0000  0.0640  0.0026  0.0068  0.0000
                                            0.0000  0.0000  0.0000  0.0000  0.0000
                                            0.0204 -0.0052  0.0059 -0.0495  0.0091
                                            0.0010  0.0000  0.0000 -0.0066  0.0039
                                           -0.0037  0.0013  0.0000  0.0000  0.0000
                                            0.0000 -0.0001 -0.0051  0.0039 -0.0011
     4. (1.98478) BD ( 1) C   1 - H   9  
                ( 61.78%)   0.7860* C   1 s( 33.01%)p 2.03( 66.88%)d 0.00(  0.09%)
                                                  f 0.00(  0.02%)
                                           -0.0002  0.5745  0.0068  0.0038 -0.0037
                                            0.7263  0.0044  0.0053 -0.0018 -0.3757
                                           -0.0074  0.0008  0.0008  0.0003  0.0000
                                            0.0000  0.0000 -0.0208 -0.0020 -0.0009
                                            0.0000  0.0000  0.0000  0.0000  0.0000
                                            0.0000  0.0199  0.0026 -0.0012 -0.0054
                                            0.0002 -0.0078  0.0000  0.0000 -0.0096
                                           -0.0007  0.0056 -0.0003  0.0000  0.0000
                                            0.0000  0.0000  0.0004  0.0003 -0.0017
                                            0.0055
                ( 38.22%)   0.6182* H   9 s( 99.87%)p 0.00(  0.10%)d 0.00(  0.02%)
                                            0.9994  0.0019  0.0000  0.0000  0.0273
                                            0.0023 -0.0102 -0.0116 -0.0040  0.0056
                                            0.0000  0.0000  0.0000 -0.0118 -0.0026
                                            0.0000  0.0000  0.0000  0.0000  0.0073
                                            0.0012 -0.0041 -0.0054
     5. (1.97756) BD ( 1) C   2 - C   3  
                ( 49.94%)   0.7067* C   2 s( 34.04%)p 1.93( 65.82%)d 0.00(  0.12%)
                                                  f 0.00(  0.02%)
                                            0.0000  0.5835 -0.0022  0.0024  0.0000
                                           -0.7736  0.0012  0.0006 -0.0004  0.2418
                                           -0.0351 -0.0002 -0.0010 -0.0002  0.0000
                                            0.0000  0.0000 -0.0055 -0.0014  0.0030
                                            0.0000  0.0000  0.0000  0.0000  0.0000
                                            0.0000  0.0245  0.0069  0.0011 -0.0220
                                           -0.0012 -0.0001  0.0000  0.0000  0.0112
                                           -0.0001 -0.0024  0.0016  0.0000  0.0000
                                            0.0000  0.0000 -0.0048 -0.0046  0.0054
                                           -0.0050
                ( 50.06%)   0.7075* C   3 s( 34.42%)p 1.90( 65.43%)d 0.00(  0.12%)
                                                  f 0.00(  0.03%)
                                           -0.0001  0.5867 -0.0074  0.0001  0.0001
                                            0.8030 -0.0127 -0.0031  0.0003 -0.0912
                                           -0.0325 -0.0006 -0.0004  0.0001  0.0000
                                            0.0000  0.0000 -0.0157 -0.0028 -0.0025
                                            0.0000  0.0000  0.0000  0.0000  0.0000
                                            0.0000  0.0197  0.0051 -0.0034 -0.0215
                                            0.0016 -0.0019  0.0000  0.0000 -0.0118
                                            0.0003  0.0025  0.0015  0.0000  0.0000
                                            0.0000  0.0000  0.0085 -0.0029 -0.0016
                                           -0.0059
     6. (1.97663) BD ( 1) C   2 - H  10  
                ( 61.42%)   0.7837* C   2 s( 30.84%)p 2.24( 69.04%)d 0.00(  0.11%)
                                                  f 0.00(  0.01%)
                                           -0.0004  0.5550  0.0173 -0.0019  0.0001
                                            0.5981  0.0123 -0.0024 -0.0007  0.5765
                                            0.0112 -0.0018 -0.0010  0.0001  0.0000
                                            0.0000  0.0000  0.0324 -0.0053  0.0007
                                            0.0000  0.0000  0.0000  0.0000  0.0000
                                            0.0000  0.0016  0.0001  0.0002 -0.0003
                                           -0.0040 -0.0042  0.0000  0.0000 -0.0066
                                           -0.0027 -0.0062 -0.0028  0.0000  0.0000
                                            0.0000  0.0000 -0.0045  0.0015  0.0032
                                           -0.0025
                ( 38.58%)   0.6211* H  10 s( 99.90%)p 0.00(  0.07%)d 0.00(  0.03%)
                                            0.9995  0.0016  0.0009  0.0001  0.0164
                                           -0.0102  0.0025  0.0163 -0.0097  0.0027
                                            0.0000  0.0000  0.0000 -0.0143  0.0018
                                            0.0000  0.0000  0.0000  0.0000 -0.0003
                                            0.0000  0.0038 -0.0056
     7. (1.98230) BD ( 1) C   3 - C   4  
                ( 48.81%)   0.6986* C   3 s( 34.50%)p 1.90( 65.38%)d 0.00(  0.10%)
                                                  f 0.00(  0.02%)
                                            0.0000  0.5872 -0.0121  0.0030 -0.0001
                                           -0.5007  0.0246  0.0016 -0.0009 -0.6344
                                           -0.0020  0.0014  0.0016 -0.0001  0.0000
                                            0.0000  0.0000  0.0199  0.0069 -0.0007
                                            0.0000  0.0000  0.0000  0.0000  0.0000
                                            0.0000 -0.0093 -0.0068 -0.0025 -0.0209
                                           -0.0010  0.0003  0.0000  0.0000  0.0078
                                           -0.0005  0.0089  0.0019  0.0000  0.0000
                                            0.0000  0.0000  0.0049  0.0029 -0.0046
                                            0.0060
                ( 51.19%)   0.7155* C   4 s( 39.78%)p 1.51( 60.07%)d 0.00(  0.07%)
                                                  f 0.00(  0.08%)
                                           -0.0001  0.6306 -0.0127  0.0037 -0.0014
                                            0.4093  0.0077 -0.0034 -0.0011  0.6574
                                           -0.0299  0.0032 -0.0010 -0.0001  0.0000
                                            0.0000  0.0000  0.0091  0.0123  0.0000
                                            0.0000  0.0000  0.0000  0.0000  0.0000
                                            0.0000 -0.0028 -0.0055  0.0021 -0.0183
                                           -0.0067  0.0017  0.0000  0.0000 -0.0157
                                           -0.0058 -0.0170 -0.0080  0.0000  0.0000
                                            0.0000  0.0000 -0.0123 -0.0048  0.0002
                                            0.0049
     8. (1.81642) BD ( 2) C   3 - C   4  
                ( 42.30%)   0.6504* C   3 s(  0.00%)p 1.00( 99.95%)d 0.00(  0.03%)
                                                  f 0.00(  0.02%)
                                            0.0000  0.0000  0.0000  0.0000  0.0000
                                           -0.0001  0.0000  0.0000  0.0000  0.0000
                                            0.0000  0.0000  0.0000  0.9997 -0.0051
                                            0.0083  0.0011  0.0000  0.0000  0.0000
                                           -0.0020 -0.0056 -0.0026 -0.0123 -0.0104
                                           -0.0024  0.0000  0.0000  0.0000  0.0000
                                            0.0000  0.0000 -0.0127 -0.0003  0.0000
                                            0.0000  0.0000  0.0000  0.0025 -0.0057
                                            0.0031 -0.0043  0.0000  0.0000  0.0000
                                            0.0000
                ( 57.70%)   0.7596* C   4 s(  0.00%)p 1.00( 99.78%)d 0.00(  0.02%)
                                                  f 0.00(  0.20%)
                                            0.0000  0.0000  0.0000  0.0000  0.0000
                                            0.0000  0.0000  0.0000  0.0000  0.0001
                                            0.0000  0.0000  0.0000  0.9988  0.0055
                                            0.0085  0.0010  0.0000  0.0000  0.0000
                                            0.0052  0.0036  0.0053 -0.0043  0.0113
                                           -0.0050  0.0000  0.0000  0.0000  0.0000
                                            0.0000  0.0000 -0.0412 -0.0054  0.0000
                                            0.0000  0.0000  0.0000  0.0060  0.0000
                                           -0.0137  0.0062  0.0000  0.0000  0.0000
                                            0.0000
     9. (1.97359) BD ( 1) C   3 - H  11  
                ( 62.04%)   0.7876* C   3 s( 31.01%)p 2.22( 68.89%)d 0.00(  0.09%)
                                                  f 0.00(  0.01%)
                                           -0.0004  0.5567  0.0143 -0.0024 -0.0001
                                           -0.3190 -0.0089  0.0021 -0.0008  0.7661
                                            0.0138 -0.0014 -0.0018 -0.0001  0.0000
                                            0.0000  0.0000 -0.0180  0.0014 -0.0001
                                            0.0000  0.0000  0.0000  0.0000  0.0000
[...]
   D15       -0.00026   0.00001   0.00000   0.00026   0.00026   0.00000
   D16        3.14142   0.00001   0.00000   0.00018   0.00018   3.14159
   D17       -0.00038   0.00002   0.00000   0.00037   0.00037  -0.00001
   D18       -3.14124  -0.00003   0.00000  -0.00036  -0.00036   3.14159
   D19        3.14112   0.00003   0.00000   0.00047   0.00047   3.14159
   D20        0.00025  -0.00002   0.00000  -0.00026  -0.00026   0.00000
   D21        3.14123   0.00003   0.00000   0.00036   0.00036  -3.14159
   D22        0.00035  -0.00003   0.00000  -0.00035  -0.00035   0.00000
         Item               Value     Threshold  Converged?
 Maximum Force            0.000148     0.000450     YES
 RMS     Force            0.000045     0.000300     YES
 Maximum Displacement     0.000483     0.001800     YES
 RMS     Displacement     0.000181     0.001200     YES
 Predicted change in Energy=-1.977351D-07
 Optimization completed.
    -- Stationary point found.
                           ----------------------------
                           !   Optimized Parameters   !
                           ! (Angstroms and Degrees)  !
 --------------------------                            --------------------------
 ! Name  Definition              Value          Derivative Info.                !
 --------------------------------------------------------------------------------
 ! R1    R(1,2)                  1.3653         -DE/DX =    0.0                 !
 ! R2    R(1,5)                  1.7063         -DE/DX =    0.0001              !
 ! R3    R(1,9)                  1.0774         -DE/DX =    0.0                 !
 ! R4    R(2,3)                  1.4135         -DE/DX =   -0.0001              !
 ! R5    R(2,10)                 1.0788         -DE/DX =    0.0                 !
 ! R6    R(3,4)                  1.3658         -DE/DX =    0.0001              !
 ! R7    R(3,11)                 1.0796         -DE/DX =    0.0                 !
 ! R8    R(4,5)                  1.7198         -DE/DX =    0.0                 !
 ! R9    R(4,6)                  1.4669         -DE/DX =   -0.0001              !
 ! R10   R(6,7)                  1.201          -DE/DX =    0.0001              !
 ! R11   R(6,8)                  1.3477         -DE/DX =   -0.0001              !
 ! R12   R(8,12)                 0.9663         -DE/DX =   -0.0001              !
 ! A1    A(2,1,5)              112.388          -DE/DX =    0.0                 !
 ! A2    A(2,1,9)              127.7357         -DE/DX =    0.0                 !
 ! A3    A(5,1,9)              119.8763         -DE/DX =    0.0                 !
 ! A4    A(1,2,3)              112.1506         -DE/DX =    0.0001              !
 ! A5    A(1,2,10)             123.4949         -DE/DX =    0.0                 !
 ! A6    A(3,2,10)             124.3546         -DE/DX =    0.0                 !
 ! A7    A(2,3,4)              112.4268         -DE/DX =    0.0                 !
 ! A8    A(2,3,11)             125.59           -DE/DX =    0.0                 !
 ! A9    A(4,3,11)             121.9832         -DE/DX =    0.0                 !
 ! A10   A(3,4,5)              111.7683         -DE/DX =   -0.0001              !
 ! A11   A(3,4,6)              125.0313         -DE/DX =    0.0                 !
 ! A12   A(5,4,6)              123.2003         -DE/DX =    0.0                 !
 ! A13   A(1,5,4)               91.2663         -DE/DX =    0.0                 !
 ! A14   A(4,6,7)              124.6159         -DE/DX =    0.0001              !
 ! A15   A(4,6,8)              112.5237         -DE/DX =    0.0                 !
 ! A16   A(7,6,8)              122.8604         -DE/DX =    0.0                 !
 ! A17   A(6,8,12)             107.1348         -DE/DX =    0.0                 !
 ! D1    D(5,1,2,3)             -0.0099         -DE/DX =    0.0                 !
 ! D2    D(5,1,2,10)          -180.006          -DE/DX =    0.0                 !
 ! D3    D(9,1,2,3)            179.9982         -DE/DX =    0.0                 !
 ! D4    D(9,1,2,10)             0.002          -DE/DX =    0.0                 !
 ! D5    D(2,1,5,4)              0.0141         -DE/DX =    0.0                 !
 ! D6    D(9,1,5,4)           -179.9933         -DE/DX =    0.0                 !
 ! D7    D(1,2,3,4)             -0.0015         -DE/DX =    0.0                 !
 ! D8    D(1,2,3,11)          -179.9954         -DE/DX =    0.0                 !
 ! D9    D(10,2,3,4)           179.9947         -DE/DX =    0.0                 !
 ! D10   D(10,2,3,11)            0.0007         -DE/DX =    0.0                 !
 ! D11   D(2,3,4,5)              0.012          -DE/DX =    0.0                 !
 ! D12   D(2,3,4,6)           -179.9928         -DE/DX =    0.0                 !
 ! D13   D(11,3,4,5)           180.0062         -DE/DX =    0.0                 !
 ! D14   D(11,3,4,6)             0.0013         -DE/DX =    0.0                 !
 ! D15   D(3,4,5,1)             -0.0149         -DE/DX =    0.0                 !
 ! D16   D(6,4,5,1)            179.9899         -DE/DX =    0.0                 !
 ! D17   D(3,4,6,7)             -0.0218         -DE/DX =    0.0                 !
 ! D18   D(3,4,6,8)            180.02           -DE/DX =    0.0                 !
 ! D19   D(5,4,6,7)            179.9728         -DE/DX =    0.0                 !
 ! D20   D(5,4,6,8)              0.0146         -DE/DX =    0.0                 !
 ! D21   D(4,6,8,12)          -180.0206         -DE/DX =    0.0                 !
 ! D22   D(7,6,8,12)             0.0203         -DE/DX =    0.0                 !
 --------------------------------------------------------------------------------
 GradGradGradGradGradGradGradGradGradGradGradGradGradGradGradGradGradGrad


 ----------------------------------------------------------------------

 Electric dipole moment (input orientation):
 (Debye = 10**-18 statcoulomb cm , SI units = C m)
                  (au)            (Debye)         (10**-30 SI)
   Tot        0.794484D+00      0.201938D+01      0.673592D+01
   x         -0.633187D+00     -0.160940D+01     -0.536838D+01
   y         -0.175115D+00     -0.445098D+00     -0.148469D+01
   z         -0.446783D+00     -0.113561D+01     -0.378798D+01

 Dipole polarizability, Alpha (input orientation).
 (esu units = cm**3 , SI units = C**2 m**2 J**-1)
 Alpha(0;0):
               (au)            (10**-24 esu)      (10**-40 SI)
   iso        0.833459D+02      0.123506D+02      0.137419D+02
   aniso      0.502593D+02      0.744766D+01      0.828664D+01
   xx         0.963561D+02      0.142785D+02      0.158870D+02
   yx         0.215948D+02      0.320002D+01      0.356051D+01
   yy         0.666767D+02      0.988047D+01      0.109935D+02
   zx         0.757229D+01      0.112210D+01      0.124850D+01
   zy        -0.938434D+01     -0.139062D+01     -0.154727D+01
   zz         0.870049D+02      0.128928D+02      0.143452D+02

 ----------------------------------------------------------------------

 Dipole orientation:
     6         -0.41793165          0.82833041          3.61922139
     6         -2.01182073          2.06964644          2.01440331
     6         -1.41986523          1.60875624         -0.54914742
     6          0.60489916          0.03204359         -0.82406930
    16          1.80366408         -0.90234488          2.04858860
     6          1.66265815         -0.79122118         -3.25050117
     8          0.86433780         -0.17005813         -5.28217223
     8          3.65902497         -2.34696561         -2.96692263
     1         -0.43831754          0.84419128          5.65499608
     1         -3.54107900          3.26068770          2.64580168
     1         -2.41288031          2.38230623         -2.15461069
     1          4.23396890         -2.79510438         -4.64120989

 Electric dipole moment (dipole orientation):
 (Debye = 10**-18 statcoulomb cm , SI units = C m)
                  (au)            (Debye)         (10**-30 SI)
   Tot        0.794484D+00      0.201938D+01      0.673592D+01
   x          0.000000D+00      0.000000D+00      0.000000D+00
   y          0.000000D+00      0.000000D+00      0.000000D+00
   z          0.794484D+00      0.201938D+01      0.673592D+01

 Dipole polarizability, Alpha (dipole orientation).
 (esu units = cm**3 , SI units = C**2 m**2 J**-1)
 Alpha(0;0):
               (au)            (10**-24 esu)      (10**-40 SI)
   iso        0.833459D+02      0.123506D+02      0.137419D+02
   aniso      0.502593D+02      0.744766D+01      0.828664D+01
   xx         0.783147D+02      0.116050D+02      0.129124D+02
   yx        -0.209826D+02     -0.310930D+01     -0.345956D+01
   yy         0.677180D+02      0.100348D+02      0.111652D+02
   zx        -0.577544D+01     -0.855832D+00     -0.952242D+00
   zy         0.449474D+01      0.666052D+00      0.741083D+00
   zz         0.104005D+03      0.154120D+02      0.171481D+02

 ----------------------------------------------------------------------
 Unable to Open any file for archive entry.
 1\1\GINC-AE13\Freq\RM062X\Aug-CC-pVTZ\C5H4O2S1\AKJ\27-Apr-2023\0\\#N G
 eom=AllCheck Guess=TCheck SCRF=Check GenChk RM062X/Aug-CC-pVTZ Freq\\C
 YH-186-A_eq00002\\0,1\C,-1.6083430406,-0.8219750615,-0.8041548566\C,-1
 .3582127693,-1.1764090479,0.4904115392\C,-0.1185782922,-0.6763139762,0
 .9498778948\C,0.5394146995,0.043697591,-0.0061428872\S,-0.3512410345,0
 .1163942502,-1.4755604344\C,1.8459409021,0.6858823368,0.1738030949\O,2
 .4890361816,0.6518666493,1.187536411\O,2.2607200544,1.3316903893,-0.93
 39973567\H,-2.4723742468,-1.0663425858,-1.3995250128\H,-2.0338847784,-
 1.7697387865,1.0863900811\H,0.2926916982,-0.8265897299,1.9366629392\H,
 3.1207306161,1.7225379713,-0.7305014224\\Version=ES64L-G16RevC.01\Stat
 e=1-A\HF=-741.5910539\RMSD=4.681e-09\RMSF=9.382e-05\ZeroPoint=0.082908
 3\Thermal=0.0896675\ETot=-741.5013864\HTot=-741.5004422\GTot=-741.5399
 435\Dipole=-0.6331866,-0.1751151,-0.4467829\DipoleDeriv=-0.1381843,0.1
 066696,-0.1836789,0.0334942,-0.0888097,-0.2616238,0.0093028,-0.1566251
 ,0.2203854,-0.1558505,0.0685146,-0.1895946,0.0502821,-0.1055841,-0.044
 3005,-0.1415579,-0.0181496,-0.3048892,0.1861414,0.0587997,0.2335908,0.
 173783,-0.0445936,0.1432966,-0.0695355,-0.0215604,-0.1275925,-0.728450
 6,-0.3293145,0.046247,-0.3754225,-0.3103844,-0.1293,0.1683593,-0.06293
 36,0.2523126,0.1782043,-0.0130677,0.0733339,-0.0128576,0.0880668,0.147
 9337,0.072879,0.1475781,-0.1336879,1.9294855,0.7513309,0.2850815,0.785
 6718,0.8869461,-0.291151,0.1948015,-0.3402407,1.5263391,-1.0848046,-0.
 217716,-0.4499951,-0.2129997,-0.4851764,-0.0040033,-0.4630756,-0.01081
 2,-1.0066119,-0.7293181,-0.3176483,0.2990203,-0.3341315,-0.6729416,0.3
 629277,0.3421915,0.3861725,-0.8814829,0.0520736,-0.046465,-0.0359362,-
 0.0563833,0.1278181,0.0106801,-0.0097389,0.024932,0.0827909,0.0508888,
 -0.070371,0.0189444,-0.0756837,0.1058352,0.0529612,0.0329073,0.0605659
 ,0.0544609,0.1080181,-0.0171929,-0.0298081,-0.0143627,0.1418694,0.0283
 083,-0.0372841,0.0242365,0.042946,0.3317963,0.0264606,-0.067205,0.0386
 1,0.3569542,-0.0157289,-0.0992494,-0.0331636,0.2750296\Polar=96.356091
 8,21.5948278,66.6767394,7.5722853,-9.3843368,87.0049164\Quadrupole=2.7
 14816,-0.1261717,-2.5886443,4.1756678,-2.7700068,-1.6751762\PG=C01 [X(
 C5H4O2S1)]\NImag=0\\0.53436933,0.15605536,0.21902882,0.21077712,-0.088
 43467,0.63656570,-0.10510389,-0.01225131,-0.03234434,0.55898425,0.0038
 0756,-0.09554906,0.09914227,0.23492875,0.33380309,-0.07471151,0.076102
 68,-0.36816384,-0.00217129,-0.20444421,0.66501201,-0.00967632,0.019084
 48,-0.07547255,-0.24266400,-0.08417710,-0.03396492,0.53121340,0.000681
 81,0.01925965,-0.02919911,-0.06721080,-0.10289894,0.00555424,0.1740342
 5,0.29831633,-0.02691157,-0.00278564,-0.02344868,-0.07871459,-0.018785
 20,-0.12762993,0.10528065,-0.17381603,0.74764338,-0.04546420,-0.028517
 49,-0.00263002,-0.04455723,-0.02513318,-0.00959280,-0.14627067,-0.0862
 8300,0.10805132,0.55770139,-0.02393026,-0.00861081,0.01162072,-0.04458
 636,-0.01063620,-0.01388974,-0.07424270,-0.15312136,0.13164706,0.24579
 977,0.29900325,-0.01474687,0.00502965,-0.02562876,0.04172586,0.0140216
 1,0.03122179,0.07629688,0.11437412,-0.25525760,-0.00118901,-0.15526983
 ,0.51454822,-0.13601593,-0.07485528,0.05540297,-0.00432107,-0.02030033
 ,0.03268626,-0.00840949,-0.00302633,-0.01657445,-0.07884210,0.00954556
 ,-0.08664874,0.24966078,-0.06526241,-0.08664350,0.03729493,-0.00311446
 ,-0.00721389,0.04153039,-0.01835694,-0.00715211,0.01549153,-0.00168495
 ,-0.03507528,-0.00484084,0.09949175,0.13354216,0.03009641,0.02353255,-
 0.05589879,-0.01263064,0.01688056,-0.05243869,0.02385264,0.03748253,-0
 .05596091,-0.05702547,0.01127101,-0.14754939,0.02757810,-0.08419770,0.
 30922191,0.01015447,0.00800605,-0.00622290,0.00968139,-0.00214757,0.01
 146085,-0.02555613,-0.01769414,0.00940400,-0.19553235,-0.05813200,-0.0
 2402383,-0.01175074,-0.00024330,-0.00797745,0.67084603,0.00701776,0.00
 364875,-0.00016259,-0.00031810,0.00211664,0.00885237,-0.01945181,-0.01
 033987,0.00048374,-0.06686829,-0.10473604,-0.00913187,0.00563519,-0.00
 113610,-0.00406789,0.15451588,0.33647050,-0.00362546,0.00124748,-0.008
 72402,0.00663001,0.00622667,-0.00127585,0.01405530,0.00300734,0.012651
 37,-0.00103819,0.00336919,-0.08221175,-0.02348060,-0.01249281,-0.00646
 742,0.24800148,-0.10084939,0.83652779,-0.00447391,-0.00192930,-0.00148
 357,-0.00144763,0.00039108,-0.00316299,0.00425308,0.00399885,-0.004126
 10,-0.03374951,-0.01348453,-0.04171108,-0.00232137,-0.00439107,0.00355
 994,-0.30044958,-0.00722826,-0.29679387,0.30393344,-0.00187512,-0.0004
 6697,-0.00117414,0.00052264,0.00065017,-0.00087349,-0.00010684,-0.0000
 9921,-0.00047345,-0.01501306,0.01607086,-0.01095974,-0.00358949,0.0009
 0977,0.00107023,-0.00787390,-0.09131740,0.01708204,0.01196754,0.057496
 34,-0.00162604,-0.00124991,0.00107419,-0.00350923,-0.00106205,-0.00219
 796,0.00670589,0.00542072,-0.00489766,-0.03764882,-0.00875109,-0.01087
 570,0.00144605,-0.00008407,0.00555917,-0.29511641,0.01800393,-0.552036
 53,0.35529227,-0.04328614,0.65917321,-0.00181892,-0.00184371,0.0016466
 3,-0.00330628,-0.00132610,-0.00062972,-0.00157196,0.00041258,-0.005697
 67,-0.02113003,-0.03136121,0.03560602,-0.00130595,-0.00149416,0.001796
 31,-0.13848506,-0.05845042,0.05004792,0.03582415,0.01023425,-0.0180546
 3,0.53373582,-0.00245932,-0.00149279,0.00152578,-0.00203738,-0.0008534
 8,-0.00179893,-0.00035420,0.00275690,-0.00345648,-0.02176427,-0.009567
 29,0.02486674,-0.00054908,-0.00060813,0.00132238,-0.04773587,-0.123062
 23,0.08214922,0.00583475,0.01844000,0.03780339,0.24833214,0.20958691,0
 .00326919,0.00240843,-0.00124040,0.00124423,-0.00077958,0.00341467,-0.
 00367558,-0.00235469,0.00257954,0.01031547,0.01111215,-0.00279988,-0.0
 0070085,-0.00003718,-0.00071793,0.02178535,0.06675609,-0.21074840,-0.0
 0645165,0.04412447,-0.09608595,0.05685469,-0.09677858,0.37465255,-0.24
 598393,-0.06478616,-0.14212609,0.00252726,-0.00108576,0.00151262,0.001
 94201,-0.00172210,-0.00119014,-0.00088157,-0.00218259,0.00228218,-0.00
 991809,-0.00052839,-0.00833059,0.00067848,-0.00126971,-0.00092558,-0.0
 0060362,0.00033986,-0.00000949,-0.00020777,0.00006415,-0.00004220,0.25
 292381,-0.06548983,-0.05098046,-0.03301419,0.00745225,0.00619446,0.003
 50949,-0.00145813,0.00386528,0.00337461,-0.00256440,-0.00091296,0.0027
 9498,-0.00785043,-0.00411192,-0.00869890,-0.00128030,0.00277105,0.0004
 9963,0.00005043,-0.00096659,-0.00060145,-0.00003408,-0.00026103,-0.000
 14205,0.06947048,0.04654004,-0.14026273,-0.03200503,-0.14473649,-0.021
 03094,-0.00874679,-0.00363092,-0.00187692,0.00300193,-0.00468061,0.003
 29408,0.00334120,-0.00254742,0.01098204,0.00180819,0.00784851,-0.00089
 823,0.00051429,0.00101054,0.00075674,-0.00018509,0.00035324,0.00021664
 ,-0.00000105,0.00001750,0.14875152,0.03384061,0.14578648,0.00763218,0.
 00385025,-0.00505290,-0.16886355,-0.11103203,0.09898111,-0.00782546,-0
 .01105270,0.01640748,-0.00381958,-0.00308079,-0.00256032,0.00252103,-0
 .00103829,-0.00314439,0.00098952,-0.00043721,0.00083070,-0.00026583,-0
 .00001461,-0.00015706,-0.00068731,-0.00028309,0.00023151,-0.00077324,0
 .00139188,0.00124903,0.17099155,-0.00492329,0.00043919,0.00252478,-0.1
 1119373,-0.13045337,0.09577270,-0.00205657,-0.00203656,0.00523154,-0.0
 0259488,0.00208134,0.00036360,-0.00199907,0.00479929,0.00193818,-0.000
 16519,0.00088235,0.00064097,-0.00008870,-0.00012611,-0.00013706,-0.000
 10717,-0.00036579,-0.00005558,0.00181374,-0.00281365,-0.00106136,0.120
 42174,0.12910854,0.01810038,0.01511794,-0.00983992,0.09940346,0.096002
 31,-0.14436422,-0.00732746,-0.00767739,0.01080797,-0.00384463,-0.00033
 501,-0.00100243,-0.00060996,0.00331647,-0.00300748,0.00011382,0.000250
 82,0.00071679,0.00003847,-0.00003062,0.00000630,-0.00023231,-0.0003080
 5,0.00015066,0.00013612,-0.00166651,0.00039148,-0.10685639,-0.10444731
 ,0.14629844,-0.00406574,-0.00296100,-0.00235726,-0.00107936,0.00605782
 ,-0.02105831,-0.09492963,0.00843653,-0.10561305,0.00984329,-0.00286249
 ,0.01334850,0.00077769,-0.00374245,0.00237449,-0.00009940,0.00170884,0
 .00177332,-0.00062376,0.00008310,-0.00110042,0.00023379,0.00039979,-0.
 00087113,0.00025295,0.00030316,-0.00112813,0.00015568,0.00082140,0.001
 08893,0.08958822,-0.00372779,0.00106251,-0.00018320,-0.00242209,0.0051
 8408,-0.01067201,0.00814144,-0.04879656,0.04321827,0.00555853,0.003305
 42,0.01456927,-0.00273182,0.00308768,0.00377887,0.00255416,-0.00310255
 ,0.00003580,-0.00026456,0.00026067,-0.00109478,0.00002733,0.00035192,-
 0.00060843,-0.00012149,0.00059786,-0.00048241,0.00125050,-0.00138644,-
 0.00012415,-0.00814506,0.03939920,-0.00033501,0.00091530,0.00012490,0.
 00131070,0.00149546,0.00039213,-0.10482621,0.04364617,-0.30246706,-0.0
 0887990,0.00248096,-0.01348462,-0.00028785,0.00232920,-0.00055636,-0.0
 0045212,-0.00117492,-0.00202621,-0.00018344,-0.00059490,0.00129745,0.0
 0011027,-0.00007499,0.00046200,-0.00000787,0.00012680,0.00013511,-0.00
 004300,-0.00073977,-0.00022306,0.11353725,-0.04850167,0.31638181,0.000
 44688,0.00014810,-0.00013709,0.00015010,0.00001685,0.00065070,-0.00050
 483,-0.00057495,-0.00031588,0.00270257,-0.00148240,0.00162041,-0.00007
 475,0.00036467,-0.00014933,-0.02047664,-0.01485388,0.00452498,-0.00007
 544,0.00532563,-0.00622211,-0.40128047,-0.17944763,-0.08195905,0.00004
 371,0.00000895,-0.00005309,-0.00005500,0.00007172,-0.00001043,-0.00005
 374,-0.00011916,0.00005719,0.41917760,0.00010553,0.00030466,0.00005942
 ,0.00023059,-0.00034351,0.00035649,-0.00105590,0.00024645,-0.00012995,
 -0.00093479,0.00219906,0.00418231,0.00022934,-0.00039798,-0.00031181,-
 0.02980383,-0.01219510,-0.00091614,0.00514377,-0.00085155,-0.00496147,
 -0.16438946,-0.09492499,-0.02364507,0.00000796,0.00007791,-0.00002449,
 0.00002435,-0.00012878,-0.00009851,-0.00009965,0.00003620,0.00009236,0
 .19054210,0.10597763,-0.00002390,0.00012123,-0.00008389,0.00008678,0.0
 0004893,-0.00033919,0.00095229,0.00056016,0.00066018,0.00018798,0.0034
 0338,-0.00441246,0.00020703,-0.00011812,-0.00003263,0.04392544,0.02052
 543,0.01258368,-0.00573473,-0.00469917,-0.00136976,-0.12166416,-0.0452
 4944,-0.06968435,-0.00005048,-0.00002302,0.00005260,0.00011423,-0.0000
 3070,0.00006546,0.00000581,0.00006445,-0.00003608,0.08199370,0.0253968
 7,0.06259645\\0.00013634,0.00006629,-0.00003763,-0.00019666,-0.0001051
 3,0.00001290,0.00021276,0.00014090,-0.00002208,-0.00023078,-0.00012566
 ,0.00003547,-0.00003110,0.00000365,0.00003171,0.00019119,-0.00005106,0
 .00005108,-0.00008977,0.00001356,-0.00002842,-0.00014836,-0.00000922,-
 0.00008570,0.00000248,-0.00001300,0.00002540,0.00003689,0.00002552,-0.
 00001394,-0.00001212,-0.00000405,-0.00000241,0.00012914,0.00005820,0.0
 0003363\\\@
 The archive entry for this job was punched.


 At the touch of love, everyone becomes a poet.
                                -- Plato
 Job cpu time:       0 days  4 hours 13 minutes 41.2 seconds.
 Elapsed time:       0 days  0 hours 12 minutes 50.6 seconds.
 File lengths (MBytes):  RWF=    193 Int=      0 D2E=      0 Chk=     18 Scr=      1
 Normal termination of Gaussian 16 at Thu Apr 27 11:31:24 2023.
