 Entering Gaussian System, Link 0=g16
 Initial command:
 /usr/local/gaussian16c01/g16/l1.exe "/scr/akj/Gau-203930.inp" -scrdir="/scr/akj/"
 Entering Link 1 = /usr/local/gaussian16c01/g16/l1.exe PID=    203931.
  
 Copyright (c) 1988-2019, Gaussian, Inc.  All Rights Reserved.
  
 This is part of the Gaussian(R) 16 program.  It is based on
 the Gaussian(R) 09 system (copyright 2009, Gaussian, Inc.),
 the Gaussian(R) 03 system (copyright 2003, Gaussian, Inc.),
 the Gaussian(R) 98 system (copyright 1998, Gaussian, Inc.),
 the Gaussian(R) 94 system (copyright 1995, Gaussian, Inc.),
 the Gaussian 92(TM) system (copyright 1992, Gaussian, Inc.),
 the Gaussian 90(TM) system (copyright 1990, Gaussian, Inc.),
 the Gaussian 88(TM) system (copyright 1988, Gaussian, Inc.),
 the Gaussian 86(TM) system (copyright 1986, Carnegie Mellon
 University), and the Gaussian 82(TM) system (copyright 1983,
 Carnegie Mellon University). Gaussian is a federally registered
 trademark of Gaussian, Inc.
  
 This software contains proprietary and confidential information,
 including trade secrets, belonging to Gaussian, Inc.
  
 This software is provided under written license and may be
 used, copied, transmitted, or stored only in accord with that
 written license.
  
 The following legend is applicable only to US Government
 contracts under FAR:
  
                    RESTRICTED RIGHTS LEGEND
  
 Use, reproduction and disclosure by the US Government is
 subject to restrictions as set forth in subparagraphs (a)
 and (c) of the Commercial Computer Software - Restricted
 Rights clause in FAR 52.227-19.
  
 Gaussian, Inc.
 340 Quinnipiac St., Bldg. 40, Wallingford CT 06492
  
  
 ---------------------------------------------------------------
 Warning -- This program may not be used in any manner that
 competes with the business of Gaussian, Inc. or will provide
 assistance to any competitor of Gaussian, Inc.  The licensee
 of this program is prohibited from giving any competitor of
 Gaussian, Inc. access to this program.  By using this program,
 the user acknowledges that Gaussian, Inc. is engaged in the
 business of creating and licensing software in the field of
 computational chemistry and represents and warrants to the
 licensee that it is not a competitor of Gaussian, Inc. and that
 it will not use this program in any manner prohibited above.
 ---------------------------------------------------------------
  

 Cite this work as:
 Gaussian 16, Revision C.01,
 M. J. Frisch, G. W. Trucks, H. B. Schlegel, G. E. Scuseria, 
 M. A. Robb, J. R. Cheeseman, G. Scalmani, V. Barone, 
 G. A. Petersson, H. Nakatsuji, X. Li, M. Caricato, A. V. Marenich, 
 J. Bloino, B. G. Janesko, R. Gomperts, B. Mennucci, H. P. Hratchian, 
 J. V. Ortiz, A. F. Izmaylov, J. L. Sonnenberg, D. Williams-Young, 
 F. Ding, F. Lipparini, F. Egidi, J. Goings, B. Peng, A. Petrone, 
 T. Henderson, D. Ranasinghe, V. G. Zakrzewski, J. Gao, N. Rega, 
 G. Zheng, W. Liang, M. Hada, M. Ehara, K. Toyota, R. Fukuda, 
 J. Hasegawa, M. Ishida, T. Nakajima, Y. Honda, O. Kitao, H. Nakai, 
 T. Vreven, K. Throssell, J. A. Montgomery, Jr., J. E. Peralta, 
 F. Ogliaro, M. J. Bearpark, J. J. Heyd, E. N. Brothers, K. N. Kudin, 
 V. N. Staroverov, T. A. Keith, R. Kobayashi, J. Normand, 
 K. Raghavachari, A. P. Rendell, J. C. Burant, S. S. Iyengar, 
 J. Tomasi, M. Cossi, J. M. Millam, M. Klene, C. Adamo, R. Cammi, 
 J. W. Ochterski, R. L. Martin, K. Morokuma, O. Farkas, 
 J. B. Foresman, and D. J. Fox, Gaussian, Inc., Wallingford CT, 2019.
 
 ******************************************
 Gaussian 16:  ES64L-G16RevC.01  3-Jul-2019
                11-May-2023 
 ******************************************
 %nprocshared=20
 Will use up to   20 processors via shared memory.
 %mem=10000MW
 %chk=CYH-209-A_eq00001_2.chk
 ------------------------------------------
 # opt=tight freq M062x/aug-cc-pvtz pop=nbo
 ------------------------------------------
 1/7=10,18=20,19=15,26=3,38=1/1,3;
 2/9=110,12=2,17=6,18=5,40=1/2;
 3/5=16,6=1,7=10,11=2,25=1,30=1,71=1,74=-55/1,2,3;
 4//1;
 5/5=2,38=5/2;
 6/7=2,8=2,9=2,10=2,28=1,40=1/1,7;
 7//1,2,3,16;
 1/7=10,18=20,19=15,26=3/3(2);
 2/9=110/2;
 99//99;
 2/9=110/2;
 3/5=16,6=1,7=10,11=2,25=1,30=1,71=1,74=-55/1,2,3;
 4/5=5,16=3,69=1/1;
 5/5=2,38=5/2;
 7//1,2,3,16;
 1/7=10,18=20,19=15,26=3/3(-5);
 2/9=110/2;
 6/7=2,8=2,9=2,10=2,19=2,28=1,40=1/1,7;
 99/9=1/99;
 -------------------
 CYH-209-A_eq00001_2
 -------------------
 Symbolic Z-matrix:
 Charge =  0 Multiplicity = 1
 C                    -1.70571   0.03624  -0.00514 
 C                    -1.02714  -1.17766  -0.01224 
 C                     0.35741  -1.1889   -0.02537 
 C                     1.05139   0.0128   -0.03191 
 C                     0.37916   1.22692  -0.0239 
 C                    -1.00474   1.23631  -0.01115 
 C                    -3.19325   0.1023    0.00603 
 O                    -3.82794   1.12092   0.01094 
 O                    -3.77217  -1.11137   0.01042 
 F                     3.08718   1.10807  -0.49886 
 C                     2.55475  -0.01145   0.00083 
 F                     3.0513   -1.03851  -0.69844 
 F                     3.01323  -0.13801   1.25485 
 H                    -1.58258  -2.10363  -0.01019 
 H                     0.89845  -2.12458  -0.03722 
 H                     0.93539   2.15312  -0.03444 
 H                    -1.55885   2.16419  -0.00812 
 H                    -4.72799  -0.9689    0.01809 
 

 GradGradGradGradGradGradGradGradGradGradGradGradGradGradGradGradGradGrad
 Berny optimization.
 Initialization pass.
                           ----------------------------
                           !    Initial Parameters    !
                           ! (Angstroms and Degrees)  !
 --------------------------                            --------------------------
 ! Name  Definition              Value          Derivative Info.                !
 --------------------------------------------------------------------------------
 ! R1    R(1,2)                  1.3907         estimate D2E/DX2                !
 ! R2    R(1,6)                  1.3898         estimate D2E/DX2                !
 ! R3    R(1,7)                  1.4891         estimate D2E/DX2                !
 ! R4    R(2,3)                  1.3847         estimate D2E/DX2                !
 ! R5    R(2,14)                 1.0798         estimate D2E/DX2                !
 ! R6    R(3,4)                  1.3877         estimate D2E/DX2                !
 ! R7    R(3,15)                 1.0809         estimate D2E/DX2                !
 ! R8    R(4,5)                  1.3878         estimate D2E/DX2                !
 ! R9    R(4,11)                 1.5039         estimate D2E/DX2                !
 ! R10   R(5,6)                  1.384          estimate D2E/DX2                !
 ! R11   R(5,16)                 1.0804         estimate D2E/DX2                !
 ! R12   R(6,17)                 1.0807         estimate D2E/DX2                !
 ! R13   R(7,8)                  1.2002         estimate D2E/DX2                !
 ! R14   R(7,9)                  1.3447         estimate D2E/DX2                !
 ! R15   R(9,18)                 0.9664         estimate D2E/DX2                !
 ! R16   R(10,11)                1.3366         estimate D2E/DX2                !
 ! R17   R(11,12)                1.3381         estimate D2E/DX2                !
 ! R18   R(11,13)                1.3412         estimate D2E/DX2                !
 ! A1    A(2,1,6)              120.5031         estimate D2E/DX2                !
 ! A2    A(2,1,7)              121.7491         estimate D2E/DX2                !
 ! A3    A(6,1,7)              117.7476         estimate D2E/DX2                !
 ! A4    A(1,2,3)              119.6714         estimate D2E/DX2                !
 ! A5    A(1,2,14)             119.837          estimate D2E/DX2                !
 ! A6    A(3,2,14)             120.4914         estimate D2E/DX2                !
 ! A7    A(2,3,4)              119.5424         estimate D2E/DX2                !
 ! A8    A(2,3,15)             120.5066         estimate D2E/DX2                !
 ! A9    A(4,3,15)             119.9497         estimate D2E/DX2                !
 ! A10   A(3,4,5)              121.0185         estimate D2E/DX2                !
 ! A11   A(3,4,11)             119.0677         estimate D2E/DX2                !
 ! A12   A(5,4,11)             119.8798         estimate D2E/DX2                !
 ! A13   A(4,5,6)              119.3624         estimate D2E/DX2                !
 ! A14   A(4,5,16)             120.0346         estimate D2E/DX2                !
 ! A15   A(6,5,16)             120.6016         estimate D2E/DX2                !
 ! A16   A(1,6,5)              119.9021         estimate D2E/DX2                !
 ! A17   A(1,6,17)             118.8641         estimate D2E/DX2                !
 ! A18   A(5,6,17)             121.2336         estimate D2E/DX2                !
 ! A19   A(1,7,8)              124.4703         estimate D2E/DX2                !
 ! A20   A(1,7,9)              112.9586         estimate D2E/DX2                !
 ! A21   A(8,7,9)              122.5711         estimate D2E/DX2                !
 ! A22   A(7,9,18)             107.0236         estimate D2E/DX2                !
 ! A23   A(4,11,10)            112.121          estimate D2E/DX2                !
 ! A24   A(4,11,12)            111.8368         estimate D2E/DX2                !
 ! A25   A(4,11,13)            111.3209         estimate D2E/DX2                !
 ! A26   A(10,11,12)           107.4404         estimate D2E/DX2                !
 ! A27   A(10,11,13)           107.0026         estimate D2E/DX2                !
 ! A28   A(12,11,13)           106.8188         estimate D2E/DX2                !
 ! D1    D(6,1,2,3)              0.0009         estimate D2E/DX2                !
 ! D2    D(6,1,2,14)          -179.8327         estimate D2E/DX2                !
 ! D3    D(7,1,2,3)            179.8654         estimate D2E/DX2                !
 ! D4    D(7,1,2,14)             0.0317         estimate D2E/DX2                !
 ! D5    D(2,1,6,5)             -0.0187         estimate D2E/DX2                !
 ! D6    D(2,1,6,17)           179.8347         estimate D2E/DX2                !
 ! D7    D(7,1,6,5)           -179.8885         estimate D2E/DX2                !
 ! D8    D(7,1,6,17)            -0.0351         estimate D2E/DX2                !
 ! D9    D(2,1,7,8)           -179.9116         estimate D2E/DX2                !
 ! D10   D(2,1,7,9)              0.0994         estimate D2E/DX2                !
 ! D11   D(6,1,7,8)             -0.0436         estimate D2E/DX2                !
 ! D12   D(6,1,7,9)            179.9674         estimate D2E/DX2                !
 ! D13   D(1,2,3,4)             -0.029          estimate D2E/DX2                !
 ! D14   D(1,2,3,15)          -179.6179         estimate D2E/DX2                !
 ! D15   D(14,2,3,4)           179.8036         estimate D2E/DX2                !
 ! D16   D(14,2,3,15)            0.2147         estimate D2E/DX2                !
 ! D17   D(2,3,4,5)              0.0759         estimate D2E/DX2                !
 ! D18   D(2,3,4,11)           177.9512         estimate D2E/DX2                !
 ! D19   D(15,3,4,5)           179.6671         estimate D2E/DX2                !
 ! D20   D(15,3,4,11)           -2.4575         estimate D2E/DX2                !
 ! D21   D(3,4,5,6)             -0.0934         estimate D2E/DX2                !
 ! D22   D(3,4,5,16)          -179.677          estimate D2E/DX2                !
 ! D23   D(11,4,5,6)          -177.9517         estimate D2E/DX2                !
 ! D24   D(11,4,5,16)            2.4647         estimate D2E/DX2                !
 ! D25   D(3,4,11,10)          156.6403         estimate D2E/DX2                !
 ! D26   D(3,4,11,12)           35.8817         estimate D2E/DX2                !
 ! D27   D(3,4,11,13)          -83.5255         estimate D2E/DX2                !
 ! D28   D(5,4,11,10)          -25.4597         estimate D2E/DX2                !
 ! D29   D(5,4,11,12)         -146.2182         estimate D2E/DX2                !
 ! D30   D(5,4,11,13)           94.3745         estimate D2E/DX2                !
 ! D31   D(4,5,6,1)              0.0641         estimate D2E/DX2                !
 ! D32   D(4,5,6,17)          -179.7857         estimate D2E/DX2                !
 ! D33   D(16,5,6,1)           179.6453         estimate D2E/DX2                !
 ! D34   D(16,5,6,17)           -0.2045         estimate D2E/DX2                !
 ! D35   D(1,7,9,18)           179.9695         estimate D2E/DX2                !
 ! D36   D(8,7,9,18)            -0.0198         estimate D2E/DX2                !
 --------------------------------------------------------------------------------
 Trust Radius=3.00D-01 FncErr=1.00D-07 GrdErr=1.00D-06 EigMax=2.50D+02 EigMin=1.00D-04
 Number of steps in this run=     92 maximum allowed number of steps=    108.
 GradGradGradGradGradGradGradGradGradGradGradGradGradGradGradGradGradGrad

                          Input orientation:                          
 ---------------------------------------------------------------------
 Center     Atomic      Atomic             Coordinates (Angstroms)
 Number     Number       Type             X           Y           Z
 ---------------------------------------------------------------------
      1          6           0       -1.705709    0.036238   -0.005138
      2          6           0       -1.027144   -1.177661   -0.012235
      3          6           0        0.357406   -1.188900   -0.025370
      4          6           0        1.051388    0.012803   -0.031905
      5          6           0        0.379155    1.226924   -0.023904
      6          6           0       -1.004736    1.236307   -0.011149
      7          6           0       -3.193254    0.102304    0.006028
      8          8           0       -3.827942    1.120917    0.010942
      9          8           0       -3.772171   -1.111374    0.010423
     10          9           0        3.087183    1.108071   -0.498856
     11          6           0        2.554748   -0.011446    0.000828
     12          9           0        3.051296   -1.038505   -0.698437
     13          9           0        3.013227   -0.138006    1.254854
     14          1           0       -1.582575   -2.103633   -0.010193
     15          1           0        0.898450   -2.124577   -0.037222
     16          1           0        0.935390    2.153124   -0.034441
     17          1           0       -1.558852    2.164187   -0.008119
     18          1           0       -4.727989   -0.968898    0.018086
 ---------------------------------------------------------------------
                    Distance matrix (angstroms):
                    1          2          3          4          5
     1  C    0.000000
     2  C    1.390702   0.000000
     3  C    2.399545   1.384658   0.000000
     4  C    2.757327   2.395389   1.387712   0.000000
     5  C    2.400988   2.785649   2.415922   1.387822   0.000000
     6  C    1.389807   2.414072   2.781593   2.392705   1.383982
     7  C    1.489053   2.516084   3.778277   4.245755   3.745367
     8  O    2.383414   3.623323   4.780556   5.003760   4.208577
     9  O    2.363794   2.745921   4.130460   4.953008   4.764696
    10  F    4.936031   4.731708   3.598881   2.358414   2.751930
    11  C    4.260728   3.766985   2.493070   1.503912   2.503473
    12  F    4.925935   4.138105   2.780770   2.355662   3.567562
    13  F    4.887361   4.360160   3.129974   2.351022   3.230571
    14  H    2.143417   1.079783   2.144876   3.378984   3.865383
    15  H    3.384050   2.145970   1.080907   2.142851   3.391519
    16  H    3.384888   3.866027   3.391647   2.143464   1.080442
    17  H    2.133013   3.383885   3.862064   3.382657   2.152808
    18  H    3.185124   3.706852   5.090337   5.862374   5.559345
                    6          7          8          9         10
     6  C    0.000000
     7  C    2.464928   0.000000
     8  O    2.825649   1.200177   0.000000
     9  O    3.629155   1.344685   2.232988   0.000000
    10  F    4.122876   6.380467   6.933903   7.227450   0.000000
    11  C    3.771864   5.749130   6.482367   6.421825   1.336596
    12  F    4.700907   6.386871   7.245015   6.860575   2.156133
    13  F    4.431199   6.335434   7.066385   6.966899   2.152598
    14  H    3.389557   2.731430   3.929356   2.404024   5.688627
    15  H    3.862426   4.658638   5.733614   4.779493   3.931116
    16  H    2.145969   4.610119   4.874099   5.728882   2.436807
    17  H    1.080747   2.631127   2.497508   3.953280   4.789765
    18  H    4.327401   1.871638   2.275404   0.966409   8.102959
                   11         12         13         14         15
    11  C    0.000000
    12  F    1.338051   0.000000
    13  F    1.341194   2.151207   0.000000
    14  H    4.636250   4.804262   5.156106   0.000000
    15  H    2.685162   2.500301   3.176194   2.481261   0.000000
    16  H    2.703503   3.886444   3.350965   4.945778   4.277861
    17  H    4.653511   5.655726   5.272485   4.267886   4.942942
    18  H    7.345425   7.812524   7.883299   3.343958   5.744168
                   16         17         18
    16  H    0.000000
    17  H    2.494405   0.000000
    18  H    6.467120   4.456494   0.000000
 Stoichiometry    C8H5F3O2
 Framework group  C1[X(C8H5F3O2)]
 Deg. of freedom    48
 Full point group                 C1      NOp   1
 Largest Abelian subgroup         C1      NOp   1
 Largest concise Abelian subgroup C1      NOp   1
                         Standard orientation:                         
 ---------------------------------------------------------------------
 Center     Atomic      Atomic             Coordinates (Angstroms)
 Number     Number       Type             X           Y           Z
 ---------------------------------------------------------------------
      1          6           0       -1.705709    0.036238   -0.005138
      2          6           0       -1.027144   -1.177661   -0.012235
      3          6           0        0.357406   -1.188900   -0.025370
      4          6           0        1.051388    0.012803   -0.031905
      5          6           0        0.379155    1.226924   -0.023904
      6          6           0       -1.004736    1.236307   -0.011149
      7          6           0       -3.193254    0.102304    0.006028
      8          8           0       -3.827942    1.120917    0.010942
      9          8           0       -3.772171   -1.111374    0.010423
     10          9           0        3.087183    1.108071   -0.498856
     11          6           0        2.554748   -0.011446    0.000828
     12          9           0        3.051296   -1.038505   -0.698437
     13          9           0        3.013227   -0.138006    1.254854
     14          1           0       -1.582575   -2.103633   -0.010193
     15          1           0        0.898450   -2.124577   -0.037222
     16          1           0        0.935390    2.153124   -0.034441
     17          1           0       -1.558852    2.164187   -0.008119
     18          1           0       -4.727989   -0.968898    0.018086
 ---------------------------------------------------------------------
 Rotational constants (GHZ):           2.3240236           0.3767913           0.3436010
 Standard basis: Aug-CC-pVTZ (5D, 7F)
 There are   840 symmetry adapted cartesian basis functions of A   symmetry.
 There are   713 symmetry adapted basis functions of A   symmetry.
   713 basis functions,  1071 primitive gaussians,   840 cartesian basis functions
    48 alpha electrons       48 beta electrons
       nuclear repulsion energy       787.1176696026 Hartrees.
 NAtoms=   18 NActive=   18 NUniq=   18 SFac= 1.00D+00 NAtFMM=   60 NAOKFM=F Big=F
 Integral buffers will be    131072 words long.
 Raffenetti 2 integral format.
 Two-electron integral symmetry is turned on.
 One-electron integrals computed using PRISM.
 NBasis=   713 RedAO= T EigKep=  1.08D-06  NBF=   713
 NBsUse=   711 1.00D-06 EigRej=  6.70D-07 NBFU=   711
 ExpMin= 2.53D-02 ExpMax= 1.95D+04 ExpMxC= 6.65D+02 IAcc=3 IRadAn=         5 AccDes= 0.00D+00
 Harris functional with IExCor= 1009 and IRadAn=       5 diagonalized for initial guess.
 HarFok:  IExCor= 1009 AccDes= 0.00D+00 IRadAn=         5 IDoV= 1 UseB2=F ITyADJ=14
 ICtDFT=  3500011 ScaDFX=  1.000000  1.000000  1.000000  1.000000
 FoFCou: FMM=F IPFlag=           0 FMFlag=      100000 FMFlg1=           0
         NFxFlg=           0 DoJE=T BraDBF=F KetDBF=T FulRan=T
         wScrn=  0.000000 ICntrl=       500 IOpCl=  0 I1Cent=   200000004 NGrid=           0
         NMat0=    1 NMatS0=      1 NMatT0=    0 NMatD0=    1 NMtDS0=    0 NMtDT0=    0
 Petite list used in FoFCou.
 Requested convergence on RMS density matrix=1.00D-08 within 128 cycles.
 Requested convergence on MAX density matrix=1.00D-06.
 Requested convergence on             energy=1.00D-06.
 No special actions if energy rises.
 SCF Done:  E(RM062X) =  -757.906275248     A.U. after   13 cycles
            NFock= 13  Conv=0.76D-08     -V/T= 2.0047

 **********************************************************************

            Population analysis using the SCF Density.

 **********************************************************************

 Orbital symmetries:
       Occupied  (A) (A) (A) (A) (A) (A) (A) (A) (A) (A) (A) (A)
                 (A) (A) (A) (A) (A) (A) (A) (A) (A) (A) (A) (A)
                 (A) (A) (A) (A) (A) (A) (A) (A) (A) (A) (A) (A)
                 (A) (A) (A) (A) (A) (A) (A) (A) (A) (A) (A) (A)
       Virtual   (A) (A) (A) (A) (A) (A) (A) (A) (A) (A) (A) (A)
                 (A) (A) (A) (A) (A) (A) (A) (A) (A) (A) (A) (A)
                 (A) (A) (A) (A) (A) (A) (A) (A) (A) (A) (A) (A)
                 (A) (A) (A) (A) (A) (A) (A) (A) (A) (A) (A) (A)
                 (A) (A) (A) (A) (A) (A) (A) (A) (A) (A) (A) (A)
                 (A) (A) (A) (A) (A) (A) (A) (A) (A) (A) (A) (A)
                 (A) (A) (A) (A) (A) (A) (A) (A) (A) (A) (A) (A)
                 (A) (A) (A) (A) (A) (A) (A) (A) (A) (A) (A) (A)
                 (A) (A) (A) (A) (A) (A) (A) (A) (A) (A) (A) (A)
                 (A) (A) (A) (A) (A) (A) (A) (A) (A) (A) (A) (A)
                 (A) (A) (A) (A) (A) (A) (A) (A) (A) (A) (A) (A)
                 (A) (A) (A) (A) (A) (A) (A) (A) (A) (A) (A) (A)
                 (A) (A) (A) (A) (A) (A) (A) (A) (A) (A) (A) (A)
                 (A) (A) (A) (A) (A) (A) (A) (A) (A) (A) (A) (A)
                 (A) (A) (A) (A) (A) (A) (A) (A) (A) (A) (A) (A)
                 (A) (A) (A) (A) (A) (A) (A) (A) (A) (A) (A) (A)
                 (A) (A) (A) (A) (A) (A) (A) (A) (A) (A) (A) (A)
                 (A) (A) (A) (A) (A) (A) (A) (A) (A) (A) (A) (A)
                 (A) (A) (A) (A) (A) (A) (A) (A) (A) (A) (A) (A)
                 (A) (A) (A) (A) (A) (A) (A) (A) (A) (A) (A) (A)
                 (A) (A) (A) (A) (A) (A) (A) (A) (A) (A) (A) (A)
                 (A) (A) (A) (A) (A) (A) (A) (A) (A) (A) (A) (A)
                 (A) (A) (A) (A) (A) (A) (A) (A) (A) (A) (A) (A)
                 (A) (A) (A) (A) (A) (A) (A) (A) (A) (A) (A) (A)
                 (A) (A) (A) (A) (A) (A) (A) (A) (A) (A) (A) (A)
                 (A) (A) (A) (A) (A) (A) (A) (A) (A) (A) (A) (A)
                 (A) (A) (A) (A) (A) (A) (A) (A) (A) (A) (A) (A)
                 (A) (A) (A) (A) (A) (A) (A) (A) (A) (A) (A) (A)
                 (A) (A) (A) (A) (A) (A) (A) (A) (A) (A) (A) (A)
                 (A) (A) (A) (A) (A) (A) (A) (A) (A) (A) (A) (A)
                 (A) (A) (A) (A) (A) (A) (A) (A) (A) (A) (A) (A)
                 (A) (A) (A) (A) (A) (A) (A) (A) (A) (A) (A) (A)
                 (A) (A) (A) (A) (A) (A) (A) (A) (A) (A) (A) (A)
                 (A) (A) (A) (A) (A) (A) (A) (A) (A) (A) (A) (A)
                 (A) (A) (A) (A) (A) (A) (A) (A) (A) (A) (A) (A)
                 (A) (A) (A) (A) (A) (A) (A) (A) (A) (A) (A) (A)
                 (A) (A) (A) (A) (A) (A) (A) (A) (A) (A) (A) (A)
                 (A) (A) (A) (A) (A) (A) (A) (A) (A) (A) (A) (A)
                 (A) (A) (A) (A) (A) (A) (A) (A) (A) (A) (A) (A)
                 (A) (A) (A) (A) (A) (A) (A) (A) (A) (A) (A) (A)
                 (A) (A) (A) (A) (A) (A) (A) (A) (A) (A) (A) (A)
                 (A) (A) (A) (A) (A) (A) (A) (A) (A) (A) (A) (A)
                 (A) (A) (A) (A) (A) (A) (A) (A) (A) (A) (A) (A)
                 (A) (A) (A) (A) (A) (A) (A) (A) (A) (A) (A) (A)
                 (A) (A) (A) (A) (A) (A) (A) (A) (A) (A) (A) (A)
                 (A) (A) (A) (A) (A) (A) (A) (A) (A) (A) (A) (A)
                 (A) (A) (A) (A) (A) (A) (A) (A) (A) (A) (A) (A)
                 (A) (A) (A) (A) (A) (A) (A) (A) (A) (A) (A) (A)
                 (A) (A) (A) (A) (A) (A) (A) (A) (A) (A) (A) (A)
                 (A) (A) (A) (A) (A) (A) (A) (A) (A) (A) (A) (A)
                 (A) (A) (A) (A) (A) (A) (A) (A) (A) (A) (A) (A)
                 (A) (A) (A) (A) (A) (A) (A) (A) (A) (A) (A) (A)
                 (A) (A) (A) (A) (A) (A) (A) (A) (A) (A) (A) (A)
                 (A) (A) (A) (A) (A) (A) (A) (A) (A) (A) (A) (A)
                 (A) (A) (A) (A) (A) (A) (A) (A) (A) (A) (A) (A)
                 (A) (A) (A)
 The electronic state is 1-A.
 Alpha  occ. eigenvalues --  -25.28877 -25.28785 -25.28448 -19.69086 -19.63473
 Alpha  occ. eigenvalues --  -10.80849 -10.69746 -10.59231 -10.58525 -10.57908
 Alpha  occ. eigenvalues --  -10.57828 -10.57807 -10.57587  -1.47829  -1.38684
 Alpha  occ. eigenvalues --   -1.38269  -1.25953  -1.16284  -1.00932  -0.92149
 Alpha  occ. eigenvalues --   -0.88286  -0.83520  -0.77396  -0.73900  -0.71288
 Alpha  occ. eigenvalues --   -0.70191  -0.69474  -0.67325  -0.62783  -0.60110
 Alpha  occ. eigenvalues --   -0.58595  -0.58465  -0.56050  -0.55676  -0.55138
 Alpha  occ. eigenvalues --   -0.54315  -0.54178  -0.53318  -0.52391  -0.51851
 Alpha  occ. eigenvalues --   -0.49182  -0.47391  -0.44964  -0.43720  -0.42042
 Alpha  occ. eigenvalues --   -0.37964  -0.34816  -0.34325
 Alpha virt. eigenvalues --   -0.04824  -0.01181  -0.01091   0.00035   0.00478
 Alpha virt. eigenvalues --    0.02042   0.02455   0.02575   0.03537   0.03985
 Alpha virt. eigenvalues --    0.04532   0.05508   0.05662   0.06148   0.06517
 Alpha virt. eigenvalues --    0.07651   0.07960   0.08279   0.08382   0.08923
 Alpha virt. eigenvalues --    0.09283   0.09418   0.09502   0.10053   0.10242
 Alpha virt. eigenvalues --    0.10392   0.10802   0.11852   0.13335   0.13647
 Alpha virt. eigenvalues --    0.13733   0.14276   0.14812   0.14989   0.15437
 Alpha virt. eigenvalues --    0.16655   0.17296   0.17419   0.17498   0.18891
 Alpha virt. eigenvalues --    0.19057   0.19502   0.19827   0.19891   0.20147
 Alpha virt. eigenvalues --    0.20625   0.21106   0.22121   0.22193   0.22522
 Alpha virt. eigenvalues --    0.22808   0.23190   0.23578   0.23845   0.23976
 Alpha virt. eigenvalues --    0.24404   0.24954   0.25272   0.25896   0.26335
 Alpha virt. eigenvalues --    0.26680   0.27208   0.27640   0.28479   0.28714
 Alpha virt. eigenvalues --    0.29181   0.29471   0.29725   0.29908   0.30290
 Alpha virt. eigenvalues --    0.31492   0.31578   0.32505   0.33033   0.33201
 Alpha virt. eigenvalues --    0.33323   0.33521   0.34432   0.34857   0.35091
 Alpha virt. eigenvalues --    0.35266   0.35513   0.36345   0.36644   0.37405
 Alpha virt. eigenvalues --    0.37944   0.38354   0.38737   0.38923   0.39475
 Alpha virt. eigenvalues --    0.40244   0.40549   0.40626   0.40999   0.41453
 Alpha virt. eigenvalues --    0.42311   0.42834   0.43543   0.43924   0.44638
 Alpha virt. eigenvalues --    0.45258   0.45621   0.45801   0.46318   0.46715
 Alpha virt. eigenvalues --    0.47051   0.47981   0.48262   0.50399   0.50811
 Alpha virt. eigenvalues --    0.51481   0.53100   0.53384   0.53692   0.53802
 Alpha virt. eigenvalues --    0.54278   0.54954   0.56026   0.56999   0.57427
 Alpha virt. eigenvalues --    0.58143   0.58584   0.59049   0.59854   0.60861
 Alpha virt. eigenvalues --    0.60985   0.61493   0.62571   0.63280   0.63484
 Alpha virt. eigenvalues --    0.64657   0.65503   0.66418   0.68062   0.68425
 Alpha virt. eigenvalues --    0.68942   0.69153   0.71129   0.71436   0.72199
 Alpha virt. eigenvalues --    0.72311   0.72719   0.73018   0.74121   0.74220
 Alpha virt. eigenvalues --    0.74937   0.75203   0.76017   0.76829   0.77211
 Alpha virt. eigenvalues --    0.77296   0.77851   0.78343   0.78689   0.79305
 Alpha virt. eigenvalues --    0.79801   0.79888   0.80573   0.80934   0.82001
 Alpha virt. eigenvalues --    0.82384   0.83016   0.83184   0.84704   0.85023
 Alpha virt. eigenvalues --    0.85518   0.86798   0.87542   0.88379   0.88667
 Alpha virt. eigenvalues --    0.89197   0.89767   0.90086   0.91171   0.91621
 Alpha virt. eigenvalues --    0.91925   0.92439   0.92814   0.93140   0.93820
 Alpha virt. eigenvalues --    0.94458   0.95081   0.95445   0.95926   0.96574
 Alpha virt. eigenvalues --    0.97288   0.98665   0.98977   0.99273   0.99810
 Alpha virt. eigenvalues --    1.00113   1.00546   1.00999   1.02072   1.02464
 Alpha virt. eigenvalues --    1.02945   1.03638   1.04080   1.04534   1.05626
 Alpha virt. eigenvalues --    1.06336   1.06581   1.07031   1.07596   1.08242
 Alpha virt. eigenvalues --    1.08811   1.09464   1.10242   1.11278   1.11853
 Alpha virt. eigenvalues --    1.12741   1.12802   1.13512   1.14103   1.15583
 Alpha virt. eigenvalues --    1.16413   1.16831   1.17618   1.18326   1.18813
 Alpha virt. eigenvalues --    1.20767   1.21618   1.22255   1.22539   1.23939
 Alpha virt. eigenvalues --    1.24703   1.25039   1.25487   1.26500   1.27002
 Alpha virt. eigenvalues --    1.27945   1.28326   1.28863   1.29238   1.30051
 Alpha virt. eigenvalues --    1.31781   1.32013   1.32577   1.34359   1.34776
 Alpha virt. eigenvalues --    1.35413   1.36181   1.37200   1.37837   1.38248
 Alpha virt. eigenvalues --    1.39839   1.42374   1.42973   1.43726   1.44120
 Alpha virt. eigenvalues --    1.44768   1.46108   1.46571   1.47844   1.48754
 Alpha virt. eigenvalues --    1.49393   1.49989   1.50847   1.51697   1.52078
 Alpha virt. eigenvalues --    1.52853   1.55453   1.55711   1.57195   1.58012
 Alpha virt. eigenvalues --    1.58792   1.59475   1.59575   1.60411   1.61307
 Alpha virt. eigenvalues --    1.62674   1.63650   1.64095   1.64346   1.65781
 Alpha virt. eigenvalues --    1.66250   1.66588   1.68308   1.69042   1.69527
 Alpha virt. eigenvalues --    1.70327   1.70685   1.72452   1.73349   1.74471
 Alpha virt. eigenvalues --    1.75674   1.75926   1.76771   1.77855   1.78680
 Alpha virt. eigenvalues --    1.79424   1.80314   1.80958   1.81728   1.83007
 Alpha virt. eigenvalues --    1.84111   1.85018   1.85273   1.85648   1.86845
 Alpha virt. eigenvalues --    1.87942   1.88428   1.89187   1.90407   1.90679
 Alpha virt. eigenvalues --    1.92255   1.92689   1.93625   1.95469   1.96689
 Alpha virt. eigenvalues --    1.98746   2.01617   2.01793   2.03159   2.04704
 Alpha virt. eigenvalues --    2.05825   2.06721   2.08213   2.08801   2.10751
 Alpha virt. eigenvalues --    2.12762   2.14184   2.14616   2.15194   2.17222
 Alpha virt. eigenvalues --    2.17617   2.18650   2.20900   2.22466   2.24398
 Alpha virt. eigenvalues --    2.25832   2.26494   2.27625   2.29031   2.30946
 Alpha virt. eigenvalues --    2.31342   2.34042   2.35576   2.36633   2.36893
 Alpha virt. eigenvalues --    2.38118   2.39842   2.40264   2.40643   2.41464
 Alpha virt. eigenvalues --    2.47408   2.47781   2.48928   2.50830   2.50981
 Alpha virt. eigenvalues --    2.52822   2.54449   2.55216   2.55896   2.57373
 Alpha virt. eigenvalues --    2.58384   2.59125   2.61490   2.62029   2.63210
 Alpha virt. eigenvalues --    2.65202   2.66352   2.67462   2.69263   2.70765
 Alpha virt. eigenvalues --    2.70978   2.72622   2.73905   2.76003   2.76913
 Alpha virt. eigenvalues --    2.77305   2.79182   2.80123   2.81424   2.83215
 Alpha virt. eigenvalues --    2.83494   2.85445   2.86842   2.88694   2.89552
 Alpha virt. eigenvalues --    2.90480   2.91600   2.92504   2.93524   2.94172
 Alpha virt. eigenvalues --    2.96124   2.96921   2.97695   2.98359   2.99153
 Alpha virt. eigenvalues --    3.00280   3.00898   3.01161   3.02817   3.03650
 Alpha virt. eigenvalues --    3.05527   3.07456   3.08498   3.08881   3.09716
 Alpha virt. eigenvalues --    3.11923   3.12241   3.12976   3.14263   3.15054
 Alpha virt. eigenvalues --    3.15895   3.16571   3.17265   3.18129   3.18463
 Alpha virt. eigenvalues --    3.20636   3.22457   3.23347   3.24291   3.24618
 Alpha virt. eigenvalues --    3.25258   3.25854   3.27024   3.28066   3.29248
 Alpha virt. eigenvalues --    3.29718   3.30912   3.32899   3.33691   3.35240
 Alpha virt. eigenvalues --    3.35572   3.36142   3.37815   3.39286   3.41135
 Alpha virt. eigenvalues --    3.42267   3.42691   3.44268   3.45569   3.46154
 Alpha virt. eigenvalues --    3.46468   3.48598   3.49391   3.50678   3.50929
 Alpha virt. eigenvalues --    3.52958   3.53982   3.54833   3.55227   3.57450
 Alpha virt. eigenvalues --    3.58105   3.58872   3.59432   3.60591   3.60921
 Alpha virt. eigenvalues --    3.62235   3.62597   3.64328   3.65733   3.65997
 Alpha virt. eigenvalues --    3.67789   3.68363   3.69631   3.71877   3.72886
 Alpha virt. eigenvalues --    3.73770   3.74304   3.75739   3.77376   3.78574
 Alpha virt. eigenvalues --    3.79844   3.81640   3.82587   3.84347   3.84781
 Alpha virt. eigenvalues --    3.86435   3.87188   3.87911   3.89378   3.90090
 Alpha virt. eigenvalues --    3.90382   3.91480   3.91998   3.92935   3.93407
 Alpha virt. eigenvalues --    3.95005   3.95061   3.96374   3.97371   3.98029
 Alpha virt. eigenvalues --    4.00427   4.01858   4.04205   4.05530   4.06525
 Alpha virt. eigenvalues --    4.07737   4.08215   4.09090   4.10361   4.11093
 Alpha virt. eigenvalues --    4.11427   4.13478   4.15210   4.16624   4.17550
 Alpha virt. eigenvalues --    4.17973   4.21877   4.23271   4.24388   4.25812
 Alpha virt. eigenvalues --    4.26607   4.27290   4.28640   4.30882   4.31877
 Alpha virt. eigenvalues --    4.32283   4.33721   4.35949   4.38169   4.38890
 Alpha virt. eigenvalues --    4.42438   4.45454   4.47098   4.48814   4.49334
 Alpha virt. eigenvalues --    4.51736   4.52892   4.53577   4.53903   4.54213
 Alpha virt. eigenvalues --    4.57477   4.58922   4.60140   4.62516   4.64330
 Alpha virt. eigenvalues --    4.66266   4.67830   4.68711   4.69434   4.71890
 Alpha virt. eigenvalues --    4.72393   4.72834   4.74892   4.75807   4.79045
 Alpha virt. eigenvalues --    4.79308   4.80074   4.84403   4.86756   4.89211
 Alpha virt. eigenvalues --    4.92119   4.94032   4.95069   4.98754   5.00791
 Alpha virt. eigenvalues --    5.05151   5.05377   5.06010   5.07931   5.09984
 Alpha virt. eigenvalues --    5.11963   5.19589   5.22898   5.30678   5.32268
 Alpha virt. eigenvalues --    5.34541   5.36527   5.38005   5.42590   5.43083
 Alpha virt. eigenvalues --    5.47849   5.49361   5.52082   5.57809   5.62297
 Alpha virt. eigenvalues --    5.64478   5.68037   5.70701   5.73241   5.81525
 Alpha virt. eigenvalues --    5.89174   5.90978   5.92945   5.98449   6.04278
 Alpha virt. eigenvalues --    6.06526   6.11980   6.20646   6.21822   6.33347
 Alpha virt. eigenvalues --    6.36202   6.38642   6.38764   6.43361   6.48069
 Alpha virt. eigenvalues --    6.55021   6.57169   6.57369   6.68240   6.70070
 Alpha virt. eigenvalues --    6.72544   6.75052   6.81539   6.81924   6.83408
 Alpha virt. eigenvalues --    6.85422   6.89017   6.92545   6.98379   7.04504
 Alpha virt. eigenvalues --    7.07039   7.11769   7.13905   7.28073   7.34444
 Alpha virt. eigenvalues --    7.46175   7.57889   7.81698   8.03881   8.42907
 Alpha virt. eigenvalues --    8.45212   8.47883   8.48409   8.50137   8.54570
 Alpha virt. eigenvalues --    8.63349   8.64896   8.75632   8.76295   8.77171
 Alpha virt. eigenvalues --    8.79044   8.82140   8.83475   8.85382   8.86164
 Alpha virt. eigenvalues --    8.88820   8.88967   8.91558   8.93256   8.93699
 Alpha virt. eigenvalues --    8.94776   8.97819   9.00806   9.02627   9.04948
 Alpha virt. eigenvalues --    9.08452   9.11800   9.12698   9.14502   9.17871
 Alpha virt. eigenvalues --    9.30424   9.32774   9.39714   9.54158   9.55382
 Alpha virt. eigenvalues --   15.10964  15.13554  15.47049  15.74943  16.07252
 Alpha virt. eigenvalues --   16.36404  16.52607  17.55573  18.09973  18.98141
 Alpha virt. eigenvalues --   19.34951  19.62207  20.13528
          Condensed to atoms (all electrons):
               1          2          3          4          5          6
     1  C    7.144795  -0.586148  -0.173925  -0.272140  -0.027467  -0.660502
     2  C   -0.586148   7.769791  -0.193264  -0.067859  -0.262120   0.161441
     3  C   -0.173925  -0.193264   8.139920  -0.890477   0.126153  -0.244841
     4  C   -0.272140  -0.067859  -0.890477   7.713565  -0.869053  -0.040581
     5  C   -0.027467  -0.262120   0.126153  -0.869053   8.050647  -0.210140
     6  C   -0.660502   0.161441  -0.244841  -0.040581  -0.210140   7.973199
     7  C   -0.491735  -0.456215  -0.000490   0.122875  -0.114373  -0.315402
     8  O   -0.062909   0.023116  -0.007662  -0.010019   0.001524   0.042623
     9  O   -0.114654   0.003732   0.008075  -0.013015   0.006823   0.012617
    10  F   -0.004207  -0.003712   0.004949   0.035161  -0.015274  -0.010638
    11  C    0.074400  -0.040845  -0.215900  -0.270956  -0.391181  -0.015042
    12  F   -0.002421  -0.015538   0.014226   0.008405  -0.002748  -0.002805
    13  F    0.019291  -0.012360   0.011468  -0.084422  -0.004132  -0.009178
    14  H   -0.313109   0.429496  -0.344099   0.011245   0.022718   0.033816
    15  H   -0.012362  -0.301484   0.522634  -0.216582   0.016714   0.040979
    16  H   -0.017462   0.090681  -0.044176  -0.355292   0.669880  -0.422743
    17  H   -0.410328   0.000554   0.052853   0.015089  -0.388545   0.542465
    18  H    0.002262  -0.016959  -0.003629   0.005188  -0.004781  -0.027949
               7          8          9         10         11         12
     1  C   -0.491735  -0.062909  -0.114654  -0.004207   0.074400  -0.002421
     2  C   -0.456215   0.023116   0.003732  -0.003712  -0.040845  -0.015538
     3  C   -0.000490  -0.007662   0.008075   0.004949  -0.215900   0.014226
     4  C    0.122875  -0.010019  -0.013015   0.035161  -0.270956   0.008405
     5  C   -0.114373   0.001524   0.006823  -0.015274  -0.391181  -0.002748
     6  C   -0.315402   0.042623   0.012617  -0.010638  -0.015042  -0.002805
     7  C    6.733485  -0.193566   0.118385  -0.000797  -0.001092  -0.001399
     8  O   -0.193566   9.316259  -0.070368  -0.000002   0.000543   0.000027
     9  O    0.118385  -0.070368   8.512762   0.000018   0.000389  -0.000006
    10  F   -0.000797  -0.000002   0.000018   9.212583   0.197482  -0.061325
    11  C   -0.001092   0.000543   0.000389   0.197482   5.573950   0.210390
    12  F   -0.001399   0.000027  -0.000006  -0.061325   0.210390   9.216583
    13  F    0.001346   0.000000  -0.000022  -0.051444   0.276688  -0.041848
    14  H    0.032163   0.000201  -0.063174   0.000084  -0.008897  -0.001923
    15  H   -0.016129   0.000655  -0.002221   0.002733  -0.036453  -0.003113
    16  H   -0.022909  -0.003648   0.000236   0.006921  -0.066912  -0.000719
    17  H    0.078982  -0.000317  -0.000122  -0.001697  -0.003216   0.000051
    18  H    0.106425  -0.120032   0.139420  -0.000002  -0.000001   0.000004
              13         14         15         16         17         18
     1  C    0.019291  -0.313109  -0.012362  -0.017462  -0.410328   0.002262
     2  C   -0.012360   0.429496  -0.301484   0.090681   0.000554  -0.016959
     3  C    0.011468  -0.344099   0.522634  -0.044176   0.052853  -0.003629
     4  C   -0.084422   0.011245  -0.216582  -0.355292   0.015089   0.005188
     5  C   -0.004132   0.022718   0.016714   0.669880  -0.388545  -0.004781
     6  C   -0.009178   0.033816   0.040979  -0.422743   0.542465  -0.027949
     7  C    0.001346   0.032163  -0.016129  -0.022909   0.078982   0.106425
     8  O    0.000000   0.000201   0.000655  -0.003648  -0.000317  -0.120032
     9  O   -0.000022  -0.063174  -0.002221   0.000236  -0.000122   0.139420
    10  F   -0.051444   0.000084   0.002733   0.006921  -0.001697  -0.000002
    11  C    0.276688  -0.008897  -0.036453  -0.066912  -0.003216  -0.000001
    12  F   -0.041848  -0.001923  -0.003113  -0.000719   0.000051   0.000004
    13  F    9.227993   0.001541  -0.017682  -0.012808   0.001084   0.000013
    14  H    0.001541   1.252855  -0.149116  -0.001586  -0.006549  -0.001122
    15  H   -0.017682  -0.149116   0.937759   0.002759  -0.000075  -0.000031
    16  H   -0.012808  -0.001586   0.002759   1.225988  -0.229937  -0.000106
    17  H    0.001084  -0.006549  -0.000075  -0.229937   1.270658  -0.000211
    18  H    0.000013  -0.001122  -0.000031  -0.000106  -0.000211   0.620095
 Mulliken charges:
               1
     1  C    1.908622
     2  C   -0.522305
     3  C   -0.761815
     4  C    1.178869
     5  C   -0.604645
     6  C   -0.847318
     7  C    0.420447
     8  O   -0.916425
     9  O   -0.538875
    10  F   -0.310831
    11  C    0.716652
    12  F   -0.315841
    13  F   -0.305527
    14  H    0.105456
    15  H    0.231018
    16  H    0.181836
    17  H    0.079263
    18  H    0.301417
 Sum of Mulliken charges =   0.00000
 Mulliken charges with hydrogens summed into heavy atoms:
               1
     1  C    1.908622
     2  C   -0.416849
     3  C   -0.530796
     4  C    1.178869
     5  C   -0.422809
     6  C   -0.768055
     7  C    0.420447
     8  O   -0.916425
     9  O   -0.237458
    10  F   -0.310831
    11  C    0.716652
    12  F   -0.315841
    13  F   -0.305527
 Electronic spatial extent (au):  <R**2>=           2898.0130
 Charge=              0.0000 electrons
 Dipole moment (field-independent basis, Debye):
    X=             -1.5322    Y=             -1.3670    Z=             -0.0782  Tot=              2.0549
 Quadrupole moment (field-independent basis, Debye-Ang):
   XX=            -76.2313   YY=            -69.0650   ZZ=            -74.7161
   XY=              7.8840   XZ=             -0.2037   YZ=             -0.0276
 Traceless Quadrupole moment (field-independent basis, Debye-Ang):
   XX=             -2.8939   YY=              4.2725   ZZ=             -1.3786
   XY=              7.8840   XZ=             -0.2037   YZ=             -0.0276
 Octapole moment (field-independent basis, Debye-Ang**2):
  XXX=            -21.5514  YYY=             -2.2915  ZZZ=             -0.5825  XYY=             19.7353
  XXY=            -39.8545  XXZ=              0.0580  XZZ=              8.3646  YZZ=              0.1670
  YYZ=              1.0481  XYZ=              0.1745
 Hexadecapole moment (field-independent basis, Debye-Ang**3):
 XXXX=          -2494.8077 YYYY=           -442.2531 ZZZZ=           -139.8161 XXXY=            204.3553
 XXXZ=             -1.7934 YYYX=              9.9520 YYYZ=             -0.0827 ZZZX=             -3.0720
 ZZZY=              0.0113 XXYY=           -567.6180 XXZZ=           -481.8225 YYZZ=           -108.5747
 XXYZ=             -0.7877 YYXZ=              3.0553 ZZXY=              1.0891
 N-N= 7.871176696026D+02 E-N=-3.357357675024D+03  KE= 7.543384907073D+02
 ******************************Gaussian NBO Version 3.1******************************
             N A T U R A L   A T O M I C   O R B I T A L   A N D
          N A T U R A L   B O N D   O R B I T A L   A N A L Y S I S
 ******************************Gaussian NBO Version 3.1******************************
       /RESON  / : Allow strongly delocalized NBO set

 Analyzing the SCF density

 Job title: CYH-209-A_eq00001_2                                             

 Storage needed:   1528079 in NPA,   2035985 in NBO (********** available)
 GSVD:  LWork=        6375 too small for GESVD, short by      993122 words or      993122 for optimal perf.


 NATURAL POPULATIONS:  Natural atomic orbital occupancies 
                                                          
   NAO  Atom  No  lang   Type(AO)    Occupancy      Energy
 ----------------------------------------------------------
     1    C    1  S      Cor( 1S)     1.99899     -10.43316
     2    C    1  S      Val( 2S)     0.93663      -0.20696
     3    C    1  S      Ryd( 3S)     0.00136       1.81896
     4    C    1  S      Ryd( 4S)     0.00010       2.43090
     5    C    1  S      Ryd( 5S)     0.00003       3.58778
     6    C    1  px     Val( 2p)     1.05926      -0.11191
     7    C    1  px     Ryd( 4p)     0.00619       2.12735
     8    C    1  px     Ryd( 5p)     0.00005       2.76008
     9    C    1  px     Ryd( 3p)     0.00006       1.03102
    10    C    1  py     Val( 2p)     1.09721      -0.10580
    11    C    1  py     Ryd( 4p)     0.00542       1.96066
    12    C    1  py     Ryd( 5p)     0.00007       2.32176
    13    C    1  py     Ryd( 3p)     0.00002       0.98132
    14    C    1  pz     Val( 2p)     1.04147      -0.15035
    15    C    1  pz     Ryd( 4p)     0.00087       0.85770
    16    C    1  pz     Ryd( 5p)     0.00009       2.04252
    17    C    1  pz     Ryd( 3p)     0.00002       0.59057
    18    C    1  dxy    Ryd( 3d)     0.00059       2.67414
    19    C    1  dxy    Ryd( 4d)     0.00036       3.58061
    20    C    1  dxy    Ryd( 5d)     0.00008       4.94576
    21    C    1  dxz    Ryd( 3d)     0.00010       1.51257
    22    C    1  dxz    Ryd( 5d)     0.00011       2.82142
    23    C    1  dxz    Ryd( 4d)     0.00002       2.22266
    24    C    1  dyz    Ryd( 3d)     0.00039       1.40471
    25    C    1  dyz    Ryd( 5d)     0.00006       2.78145
    26    C    1  dyz    Ryd( 4d)     0.00002       2.43135
    27    C    1  dx2y2  Ryd( 3d)     0.00218       3.21893
    28    C    1  dx2y2  Ryd( 4d)     0.00019       3.83529
    29    C    1  dx2y2  Ryd( 5d)     0.00002       3.95729
    30    C    1  dz2    Ryd( 3d)     0.00080       1.73442
    31    C    1  dz2    Ryd( 4d)     0.00014       3.63700
    32    C    1  dz2    Ryd( 5d)     0.00005       4.16650
    33    C    1  f(0)   Ryd( 4f)     0.00048       1.39262
    34    C    1  f(0)   Ryd( 5f)     0.00016       3.53093
    35    C    1  f(C1)  Ryd( 4f)     0.00020       1.89706
    36    C    1  f(C1)  Ryd( 5f)     0.00039       3.65001
    37    C    1  f(S1)  Ryd( 4f)     0.00057       1.81978
    38    C    1  f(S1)  Ryd( 5f)     0.00027       3.68617
    39    C    1  f(C2)  Ryd( 4f)     0.00054       1.34361
    40    C    1  f(C2)  Ryd( 5f)     0.00003       3.56950
    41    C    1  f(S2)  Ryd( 4f)     0.00060       1.30381
    42    C    1  f(S2)  Ryd( 5f)     0.00002       3.58539
    43    C    1  f(C3)  Ryd( 4f)     0.00072       3.08770
    44    C    1  f(C3)  Ryd( 5f)     0.00011       4.18025
    45    C    1  f(S3)  Ryd( 4f)     0.00188       2.26449
    46    C    1  f(S3)  Ryd( 5f)     0.00017       4.52674
 
    47    C    2  S      Cor( 1S)     1.99921     -10.42119
    48    C    2  S      Val( 2S)     0.96460      -0.23197
    49    C    2  S      Ryd( 3S)     0.00118       1.79024
    50    C    2  S      Ryd( 5S)     0.00009       2.92195
    51    C    2  S      Ryd( 4S)     0.00003       2.05148
    52    C    2  px     Val( 2p)     1.08132      -0.08818
    53    C    2  px     Ryd( 4p)     0.00340       1.83575
    54    C    2  px     Ryd( 5p)     0.00013       2.34895
    55    C    2  px     Ryd( 3p)     0.00006       1.23191
    56    C    2  py     Val( 2p)     1.14277      -0.09393
    57    C    2  py     Ryd( 4p)     0.00432       1.64065
    58    C    2  py     Ryd( 5p)     0.00007       2.20913
    59    C    2  py     Ryd( 3p)     0.00004       1.27238
    60    C    2  pz     Val( 2p)     0.95333      -0.14083
    61    C    2  pz     Ryd( 4p)     0.00070       0.96103
    62    C    2  pz     Ryd( 5p)     0.00005       1.59532
    63    C    2  pz     Ryd( 3p)     0.00005       0.70576
    64    C    2  dxy    Ryd( 3d)     0.00185       2.54089
    65    C    2  dxy    Ryd( 5d)     0.00015       3.82944
    66    C    2  dxy    Ryd( 4d)     0.00009       3.09148
    67    C    2  dxz    Ryd( 3d)     0.00038       1.38114
    68    C    2  dxz    Ryd( 5d)     0.00007       3.01345
    69    C    2  dxz    Ryd( 4d)     0.00003       1.92552
    70    C    2  dyz    Ryd( 3d)     0.00022       1.30924
    71    C    2  dyz    Ryd( 5d)     0.00008       3.05060
    72    C    2  dyz    Ryd( 4d)     0.00003       1.58883
    73    C    2  dx2y2  Ryd( 4d)     0.00172       3.40231
    74    C    2  dx2y2  Ryd( 5d)     0.00020       4.09031
    75    C    2  dx2y2  Ryd( 3d)     0.00007       2.46352
    76    C    2  dz2    Ryd( 3d)     0.00090       1.70834
    77    C    2  dz2    Ryd( 4d)     0.00011       3.72494
    78    C    2  dz2    Ryd( 5d)     0.00006       4.43198
    79    C    2  f(0)   Ryd( 4f)     0.00014       1.47191
    80    C    2  f(0)   Ryd( 5f)     0.00008       3.34729
    81    C    2  f(C1)  Ryd( 4f)     0.00037       2.00669
    82    C    2  f(C1)  Ryd( 5f)     0.00019       3.60734
    83    C    2  f(S1)  Ryd( 4f)     0.00044       1.77375
    84    C    2  f(S1)  Ryd( 5f)     0.00013       3.48258
    85    C    2  f(C2)  Ryd( 4f)     0.00019       1.52553
    86    C    2  f(C2)  Ryd( 5f)     0.00003       3.37172
    87    C    2  f(S2)  Ryd( 4f)     0.00017       1.50433
    88    C    2  f(S2)  Ryd( 5f)     0.00003       3.40049
    89    C    2  f(C3)  Ryd( 4f)     0.00034       2.69230
    90    C    2  f(C3)  Ryd( 5f)     0.00016       3.95454
    91    C    2  f(S3)  Ryd( 4f)     0.00096       1.94089
    92    C    2  f(S3)  Ryd( 5f)     0.00021       4.13326
 
    93    C    3  S      Cor( 1S)     1.99918     -10.42202
    94    C    3  S      Val( 2S)     0.96280      -0.23221
    95    C    3  S      Ryd( 3S)     0.00118       1.72013
    96    C    3  S      Ryd( 5S)     0.00009       3.00954
    97    C    3  S      Ryd( 4S)     0.00002       1.90562
    98    C    3  px     Val( 2p)     1.08630      -0.09472
    99    C    3  px     Ryd( 4p)     0.00319       1.74927
   100    C    3  px     Ryd( 3p)     0.00014       1.30149
   101    C    3  px     Ryd( 5p)     0.00004       1.80183
   102    C    3  py     Val( 2p)     1.14067      -0.09936
   103    C    3  py     Ryd( 4p)     0.00411       1.64396
   104    C    3  py     Ryd( 3p)     0.00006       1.54527
   105    C    3  py     Ryd( 5p)     0.00004       1.79378
   106    C    3  pz     Val( 2p)     0.97669      -0.14508
   107    C    3  pz     Ryd( 3p)     0.00069       0.97482
   108    C    3  pz     Ryd( 4p)     0.00006       1.07887
   109    C    3  pz     Ryd( 5p)     0.00003       1.28670
   110    C    3  dxy    Ryd( 3d)     0.00181       2.56672
   111    C    3  dxy    Ryd( 5d)     0.00018       3.73768
   112    C    3  dxy    Ryd( 4d)     0.00008       2.86450
   113    C    3  dxz    Ryd( 3d)     0.00046       1.45120
   114    C    3  dxz    Ryd( 5d)     0.00005       2.87543
   115    C    3  dxz    Ryd( 4d)     0.00002       2.01526
   116    C    3  dyz    Ryd( 3d)     0.00024       1.40006
   117    C    3  dyz    Ryd( 5d)     0.00005       2.94146
   118    C    3  dyz    Ryd( 4d)     0.00002       1.67863
   119    C    3  dx2y2  Ryd( 4d)     0.00144       3.36403
   120    C    3  dx2y2  Ryd( 5d)     0.00030       3.90732
   121    C    3  dx2y2  Ryd( 3d)     0.00005       2.39778
   122    C    3  dz2    Ryd( 3d)     0.00090       1.78767
   123    C    3  dz2    Ryd( 4d)     0.00011       3.72539
   124    C    3  dz2    Ryd( 5d)     0.00008       3.75188
   125    C    3  f(0)   Ryd( 5f)     0.00012       3.46301
   126    C    3  f(0)   Ryd( 4f)     0.00004       2.32999
   127    C    3  f(C1)  Ryd( 5f)     0.00022       3.75603
   128    C    3  f(C1)  Ryd( 4f)     0.00002       3.13902
   129    C    3  f(S1)  Ryd( 5f)     0.00021       3.65131
   130    C    3  f(S1)  Ryd( 4f)     0.00002       2.94574
   131    C    3  f(C2)  Ryd( 5f)     0.00001       3.54799
   132    C    3  f(C2)  Ryd( 4f)     0.00002       2.50342
   133    C    3  f(S2)  Ryd( 5f)     0.00002       3.59064
   134    C    3  f(S2)  Ryd( 4f)     0.00002       2.37959
   135    C    3  f(C3)  Ryd( 4f)     0.00015       4.12829
   136    C    3  f(C3)  Ryd( 5f)     0.00004       5.95161
   137    C    3  f(S3)  Ryd( 5f)     0.00013       4.23831
   138    C    3  f(S3)  Ryd( 4f)     0.00007       4.06715
 
   139    C    4  S      Cor( 1S)     1.99901     -10.44189
   140    C    4  S      Val( 2S)     0.93721      -0.22622
   141    C    4  S      Ryd( 3S)     0.00120       1.83919
   142    C    4  S      Ryd( 4S)     0.00010       2.23588
   143    C    4  S      Ryd( 5S)     0.00002       3.56246
   144    C    4  px     Val( 2p)     1.02732      -0.12111
   145    C    4  px     Ryd( 4p)     0.00534       2.15099
   146    C    4  px     Ryd( 3p)     0.00014       0.77762
   147    C    4  px     Ryd( 5p)     0.00005       3.14660
   148    C    4  py     Val( 2p)     1.10058      -0.11502
   149    C    4  py     Ryd( 4p)     0.00351       1.86344
   150    C    4  py     Ryd( 3p)     0.00005       0.89149
   151    C    4  py     Ryd( 5p)     0.00004       2.21439
   152    C    4  pz     Val( 2p)     1.03329      -0.15735
   153    C    4  pz     Ryd( 4p)     0.00171       0.92802
   154    C    4  pz     Ryd( 3p)     0.00009       0.65218
   155    C    4  pz     Ryd( 5p)     0.00007       1.88312
   156    C    4  dxy    Ryd( 3d)     0.00097       3.13851
   157    C    4  dxy    Ryd( 5d)     0.00039       3.91837
   158    C    4  dxy    Ryd( 4d)     0.00005       3.73118
   159    C    4  dxz    Ryd( 3d)     0.00034       1.45417
   160    C    4  dxz    Ryd( 5d)     0.00023       3.14711
   161    C    4  dxz    Ryd( 4d)     0.00006       2.00188
   162    C    4  dyz    Ryd( 3d)     0.00045       1.21999
   163    C    4  dyz    Ryd( 5d)     0.00008       3.04837
   164    C    4  dyz    Ryd( 4d)     0.00003       1.95043
   165    C    4  dx2y2  Ryd( 4d)     0.00245       3.06931
   166    C    4  dx2y2  Ryd( 5d)     0.00037       3.92727
   167    C    4  dx2y2  Ryd( 3d)     0.00005       2.97585
   168    C    4  dz2    Ryd( 3d)     0.00094       1.94840
   169    C    4  dz2    Ryd( 4d)     0.00010       3.95142
   170    C    4  dz2    Ryd( 5d)     0.00008       4.48450
   171    C    4  f(0)   Ryd( 4f)     0.00067       1.38850
   172    C    4  f(0)   Ryd( 5f)     0.00012       3.56098
   173    C    4  f(C1)  Ryd( 4f)     0.00053       1.79058
   174    C    4  f(C1)  Ryd( 5f)     0.00033       3.64016
   175    C    4  f(S1)  Ryd( 4f)     0.00080       1.57718
   176    C    4  f(S1)  Ryd( 5f)     0.00020       3.62976
   177    C    4  f(C2)  Ryd( 4f)     0.00062       1.31704
   178    C    4  f(C2)  Ryd( 5f)     0.00003       3.63492
   179    C    4  f(S2)  Ryd( 4f)     0.00030       1.21251
   180    C    4  f(S2)  Ryd( 5f)     0.00003       3.61699
   181    C    4  f(C3)  Ryd( 4f)     0.00077       1.62574
   182    C    4  f(C3)  Ryd( 5f)     0.00019       4.13415
   183    C    4  f(S3)  Ryd( 4f)     0.00270       1.91222
   184    C    4  f(S3)  Ryd( 5f)     0.00017       4.29904
 
   185    C    5  S      Cor( 1S)     1.99918     -10.42127
   186    C    5  S      Val( 2S)     0.96367      -0.23171
   187    C    5  S      Ryd( 3S)     0.00114       1.72911
   188    C    5  S      Ryd( 5S)     0.00009       3.01456
   189    C    5  S      Ryd( 4S)     0.00002       1.92727
   190    C    5  px     Val( 2p)     1.08882      -0.09380
   191    C    5  px     Ryd( 4p)     0.00320       1.74552
   192    C    5  px     Ryd( 3p)     0.00013       1.35391
   193    C    5  px     Ryd( 5p)     0.00005       1.79221
   194    C    5  py     Val( 2p)     1.13888      -0.09795
   195    C    5  py     Ryd( 4p)     0.00392       1.64752
   196    C    5  py     Ryd( 3p)     0.00006       1.55449
   197    C    5  py     Ryd( 5p)     0.00004       1.77616
   198    C    5  pz     Val( 2p)     0.97565      -0.14425
   199    C    5  pz     Ryd( 3p)     0.00066       0.97683
   200    C    5  pz     Ryd( 4p)     0.00005       1.10338
   201    C    5  pz     Ryd( 5p)     0.00004       1.27644
   202    C    5  dxy    Ryd( 3d)     0.00181       2.52713
   203    C    5  dxy    Ryd( 5d)     0.00017       3.69570
   204    C    5  dxy    Ryd( 4d)     0.00008       2.96315
   205    C    5  dxz    Ryd( 3d)     0.00049       1.45486
   206    C    5  dxz    Ryd( 5d)     0.00004       2.85878
   207    C    5  dxz    Ryd( 4d)     0.00004       2.07262
   208    C    5  dyz    Ryd( 3d)     0.00027       1.41357
   209    C    5  dyz    Ryd( 5d)     0.00005       2.92841
   210    C    5  dyz    Ryd( 4d)     0.00002       1.70775
   211    C    5  dx2y2  Ryd( 4d)     0.00144       3.40230
   212    C    5  dx2y2  Ryd( 5d)     0.00031       3.89301
   213    C    5  dx2y2  Ryd( 3d)     0.00005       2.40105
   214    C    5  dz2    Ryd( 3d)     0.00088       1.78850
   215    C    5  dz2    Ryd( 4d)     0.00011       3.71575
   216    C    5  dz2    Ryd( 5d)     0.00007       3.78125
   217    C    5  f(0)   Ryd( 5f)     0.00012       3.45187
   218    C    5  f(0)   Ryd( 4f)     0.00004       2.32659
   219    C    5  f(C1)  Ryd( 5f)     0.00022       3.77135
   220    C    5  f(C1)  Ryd( 4f)     0.00002       3.15841
   221    C    5  f(S1)  Ryd( 5f)     0.00021       3.65171
   222    C    5  f(S1)  Ryd( 4f)     0.00002       2.97502
   223    C    5  f(C2)  Ryd( 5f)     0.00001       3.53539
   224    C    5  f(C2)  Ryd( 4f)     0.00001       2.51651
   225    C    5  f(S2)  Ryd( 5f)     0.00002       3.59419
   226    C    5  f(S2)  Ryd( 4f)     0.00003       2.38687
   227    C    5  f(C3)  Ryd( 4f)     0.00016       4.13658
   228    C    5  f(C3)  Ryd( 5f)     0.00004       5.95348
   229    C    5  f(S3)  Ryd( 5f)     0.00013       4.22960
   230    C    5  f(S3)  Ryd( 4f)     0.00007       4.02700
 
   231    C    6  S      Cor( 1S)     1.99921     -10.41865
   232    C    6  S      Val( 2S)     0.96615      -0.22965
   233    C    6  S      Ryd( 3S)     0.00126       1.78381
   234    C    6  S      Ryd( 5S)     0.00010       2.89182
   235    C    6  S      Ryd( 4S)     0.00002       1.88630
   236    C    6  px     Val( 2p)     1.07825      -0.08385
   237    C    6  px     Ryd( 4p)     0.00356       1.84939
   238    C    6  px     Ryd( 5p)     0.00011       2.26345
   239    C    6  px     Ryd( 3p)     0.00007       1.20422
   240    C    6  py     Val( 2p)     1.14617      -0.09361
   241    C    6  py     Ryd( 4p)     0.00445       1.63726
   242    C    6  py     Ryd( 5p)     0.00007       2.20433
   243    C    6  py     Ryd( 3p)     0.00004       1.23319
   244    C    6  pz     Val( 2p)     0.94126      -0.13725
   245    C    6  pz     Ryd( 4p)     0.00065       0.96873
   246    C    6  pz     Ryd( 5p)     0.00004       1.59302
   247    C    6  pz     Ryd( 3p)     0.00004       0.71151
   248    C    6  dxy    Ryd( 3d)     0.00181       2.58990
   249    C    6  dxy    Ryd( 5d)     0.00015       3.91682
   250    C    6  dxy    Ryd( 4d)     0.00008       3.07889
   251    C    6  dxz    Ryd( 3d)     0.00029       1.39701
   252    C    6  dxz    Ryd( 5d)     0.00005       3.07809
   253    C    6  dxz    Ryd( 4d)     0.00003       1.84667
   254    C    6  dyz    Ryd( 3d)     0.00022       1.32168
   255    C    6  dyz    Ryd( 5d)     0.00007       3.10421
   256    C    6  dyz    Ryd( 4d)     0.00003       1.52259
   257    C    6  dx2y2  Ryd( 4d)     0.00176       3.32149
   258    C    6  dx2y2  Ryd( 5d)     0.00022       4.17124
   259    C    6  dx2y2  Ryd( 3d)     0.00007       2.41873
   260    C    6  dz2    Ryd( 3d)     0.00082       1.72709
   261    C    6  dz2    Ryd( 4d)     0.00009       3.71688
   262    C    6  dz2    Ryd( 5d)     0.00006       4.39592
   263    C    6  f(0)   Ryd( 4f)     0.00011       1.43423
   264    C    6  f(0)   Ryd( 5f)     0.00008       3.38030
   265    C    6  f(C1)  Ryd( 4f)     0.00034       1.96450
   266    C    6  f(C1)  Ryd( 5f)     0.00020       3.62993
   267    C    6  f(S1)  Ryd( 4f)     0.00042       1.74049
   268    C    6  f(S1)  Ryd( 5f)     0.00014       3.52365
   269    C    6  f(C2)  Ryd( 4f)     0.00018       1.49121
   270    C    6  f(C2)  Ryd( 5f)     0.00003       3.40527
   271    C    6  f(S2)  Ryd( 4f)     0.00017       1.46457
   272    C    6  f(S2)  Ryd( 5f)     0.00003       3.44477
   273    C    6  f(C3)  Ryd( 4f)     0.00029       2.68302
   274    C    6  f(C3)  Ryd( 5f)     0.00018       3.98109
   275    C    6  f(S3)  Ryd( 4f)     0.00104       1.86697
   276    C    6  f(S3)  Ryd( 5f)     0.00020       4.15512
 
   277    C    7  S      Cor( 1S)     1.99939     -10.57479
   278    C    7  S      Val( 2S)     0.79035      -0.15967
   279    C    7  S      Ryd( 4S)     0.00429       1.86332
   280    C    7  S      Ryd( 3S)     0.00017       1.72160
   281    C    7  S      Ryd( 5S)     0.00007       2.33237
   282    C    7  px     Val( 2p)     0.91461      -0.07629
   283    C    7  px     Ryd( 5p)     0.00583       1.53924
   284    C    7  px     Ryd( 3p)     0.00022       1.06404
   285    C    7  px     Ryd( 4p)     0.00001       1.41114
   286    C    7  py     Val( 2p)     0.72045      -0.02568
   287    C    7  py     Ryd( 4p)     0.01398       1.56787
   288    C    7  py     Ryd( 3p)     0.00008       1.23083
   289    C    7  py     Ryd( 5p)     0.00005       1.78255
   290    C    7  pz     Val( 2p)     0.73851      -0.13879
   291    C    7  pz     Ryd( 5p)     0.00039       1.10481
   292    C    7  pz     Ryd( 3p)     0.00007       0.71719
   293    C    7  pz     Ryd( 4p)     0.00003       1.01452
   294    C    7  dxy    Ryd( 4d)     0.00054       3.23936
   295    C    7  dxy    Ryd( 3d)     0.00032       2.27690
   296    C    7  dxy    Ryd( 5d)     0.00007       3.95741
   297    C    7  dxz    Ryd( 4d)     0.00093       2.49922
   298    C    7  dxz    Ryd( 3d)     0.00013       1.45596
   299    C    7  dxz    Ryd( 5d)     0.00006       2.59059
   300    C    7  dyz    Ryd( 4d)     0.00157       2.66952
   301    C    7  dyz    Ryd( 3d)     0.00006       1.60260
   302    C    7  dyz    Ryd( 5d)     0.00005       2.73669
   303    C    7  dx2y2  Ryd( 4d)     0.00215       3.27605
   304    C    7  dx2y2  Ryd( 3d)     0.00014       1.88916
   305    C    7  dx2y2  Ryd( 5d)     0.00007       3.75016
   306    C    7  dz2    Ryd( 5d)     0.00023       3.49713
   307    C    7  dz2    Ryd( 3d)     0.00051       1.99521
   308    C    7  dz2    Ryd( 4d)     0.00009       3.30062
   309    C    7  f(0)   Ryd( 5f)     0.00009       3.35722
   310    C    7  f(0)   Ryd( 4f)     0.00003       2.48674
   311    C    7  f(C1)  Ryd( 5f)     0.00011       3.54458
   312    C    7  f(C1)  Ryd( 4f)     0.00002       3.08528
   313    C    7  f(S1)  Ryd( 5f)     0.00006       3.57577
   314    C    7  f(S1)  Ryd( 4f)     0.00004       3.36320
   315    C    7  f(C2)  Ryd( 5f)     0.00001       3.29421
   316    C    7  f(C2)  Ryd( 4f)     0.00005       2.66316
   317    C    7  f(S2)  Ryd( 5f)     0.00001       3.47761
   318    C    7  f(S2)  Ryd( 4f)     0.00000       2.86546
   319    C    7  f(C3)  Ryd( 4f)     0.00007       4.54099
   320    C    7  f(C3)  Ryd( 5f)     0.00004       8.27377
   321    C    7  f(S3)  Ryd( 5f)     0.00009       4.35630
   322    C    7  f(S3)  Ryd( 4f)     0.00003       4.14522
 
   323    O    8  S      Cor( 1S)     1.99977     -19.34261
   324    O    8  S      Val( 2S)     1.69954      -1.02270
   325    O    8  S      Ryd( 4S)     0.00057       2.90232
   326    O    8  S      Ryd( 3S)     0.00020       1.80745
   327    O    8  S      Ryd( 5S)     0.00001       8.36968
   328    O    8  px     Val( 2p)     1.76667      -0.36024
   329    O    8  px     Ryd( 4p)     0.00160       1.34577
   330    O    8  px     Ryd( 3p)     0.00011       0.80769
   331    O    8  px     Ryd( 5p)     0.00003       4.71010
   332    O    8  py     Val( 2p)     1.64205      -0.36372
   333    O    8  py     Ryd( 4p)     0.00130       1.45790
   334    O    8  py     Ryd( 3p)     0.00009       0.73997
   335    O    8  py     Ryd( 5p)     0.00006       5.24699
   336    O    8  pz     Val( 2p)     1.45339      -0.30839
   337    O    8  pz     Ryd( 4p)     0.00053       1.00642
   338    O    8  pz     Ryd( 3p)     0.00002       0.56460
   339    O    8  pz     Ryd( 5p)     0.00001       4.15400
   340    O    8  dxy    Ryd( 3d)     0.00838       2.02165
   341    O    8  dxy    Ryd( 4d)     0.00010       3.39874
   342    O    8  dxy    Ryd( 5d)     0.00003       6.42104
   343    O    8  dxz    Ryd( 3d)     0.00217       1.42102
   344    O    8  dxz    Ryd( 4d)     0.00001       1.83128
   345    O    8  dxz    Ryd( 5d)     0.00001       6.27278
   346    O    8  dyz    Ryd( 3d)     0.00516       1.51065
   347    O    8  dyz    Ryd( 4d)     0.00003       1.88664
   348    O    8  dyz    Ryd( 5d)     0.00002       6.22255
   349    O    8  dx2y2  Ryd( 3d)     0.00651       1.78781
   350    O    8  dx2y2  Ryd( 4d)     0.00007       2.38314
   351    O    8  dx2y2  Ryd( 5d)     0.00004       6.33549
   352    O    8  dz2    Ryd( 3d)     0.00290       1.61012
   353    O    8  dz2    Ryd( 4d)     0.00009       2.60204
   354    O    8  dz2    Ryd( 5d)     0.00001       6.35426
   355    O    8  f(0)   Ryd( 4f)     0.00015       3.12071
   356    O    8  f(0)   Ryd( 5f)     0.00000       5.45375
   357    O    8  f(C1)  Ryd( 4f)     0.00008       3.27852
   358    O    8  f(C1)  Ryd( 5f)     0.00001       5.55918
   359    O    8  f(S1)  Ryd( 4f)     0.00011       3.53854
   360    O    8  f(S1)  Ryd( 5f)     0.00001       5.70827
   361    O    8  f(C2)  Ryd( 4f)     0.00009       3.07768
   362    O    8  f(C2)  Ryd( 5f)     0.00001       5.67347
   363    O    8  f(S2)  Ryd( 4f)     0.00030       3.17163
   364    O    8  f(S2)  Ryd( 5f)     0.00001       5.56799
   365    O    8  f(C3)  Ryd( 4f)     0.00038       4.08116
   366    O    8  f(C3)  Ryd( 5f)     0.00001       5.99871
   367    O    8  f(S3)  Ryd( 4f)     0.00050       3.59035
   368    O    8  f(S3)  Ryd( 5f)     0.00002       5.90099
 
   369    O    9  S      Cor( 1S)     1.99978     -19.47127
   370    O    9  S      Val( 2S)     1.67972      -1.05733
   371    O    9  S      Ryd( 3S)     0.00065       1.76561
   372    O    9  S      Ryd( 4S)     0.00004       2.48520
   373    O    9  S      Ryd( 5S)     0.00001       9.37329
   374    O    9  px     Val( 2p)     1.51129      -0.38360
   375    O    9  px     Ryd( 4p)     0.00072       1.16953
   376    O    9  px     Ryd( 3p)     0.00007       0.95235
   377    O    9  px     Ryd( 5p)     0.00005       5.11711
   378    O    9  py     Val( 2p)     1.64670      -0.41935
   379    O    9  py     Ryd( 4p)     0.00075       1.06692
   380    O    9  py     Ryd( 3p)     0.00009       0.70204
   381    O    9  py     Ryd( 5p)     0.00009       4.97493
   382    O    9  pz     Val( 2p)     1.83572      -0.42996
   383    O    9  pz     Ryd( 4p)     0.00108       0.84703
   384    O    9  pz     Ryd( 3p)     0.00001       0.63569
   385    O    9  pz     Ryd( 5p)     0.00001       4.01930
   386    O    9  dxy    Ryd( 3d)     0.00514       1.83108
   387    O    9  dxy    Ryd( 4d)     0.00012       2.62849
   388    O    9  dxy    Ryd( 5d)     0.00004       6.64937
   389    O    9  dxz    Ryd( 3d)     0.00065       1.16781
   390    O    9  dxz    Ryd( 4d)     0.00005       2.01567
   391    O    9  dxz    Ryd( 5d)     0.00001       6.33675
   392    O    9  dyz    Ryd( 3d)     0.00475       1.32248
   393    O    9  dyz    Ryd( 4d)     0.00002       1.79135
   394    O    9  dyz    Ryd( 5d)     0.00004       6.36878
   395    O    9  dx2y2  Ryd( 3d)     0.00566       1.89572
   396    O    9  dx2y2  Ryd( 4d)     0.00006       2.21199
   397    O    9  dx2y2  Ryd( 5d)     0.00006       6.84572
   398    O    9  dz2    Ryd( 3d)     0.00315       1.50236
   399    O    9  dz2    Ryd( 4d)     0.00015       2.44225
   400    O    9  dz2    Ryd( 5d)     0.00001       6.60676
   401    O    9  f(0)   Ryd( 4f)     0.00057       2.73112
   402    O    9  f(0)   Ryd( 5f)     0.00001       5.96117
   403    O    9  f(C1)  Ryd( 4f)     0.00022       3.34177
   404    O    9  f(C1)  Ryd( 5f)     0.00001       6.23502
   405    O    9  f(S1)  Ryd( 4f)     0.00018       3.31113
   406    O    9  f(S1)  Ryd( 5f)     0.00001       6.11086
   407    O    9  f(C2)  Ryd( 4f)     0.00002       2.82538
   408    O    9  f(C2)  Ryd( 5f)     0.00001       6.10531
   409    O    9  f(S2)  Ryd( 4f)     0.00009       2.76429
   410    O    9  f(S2)  Ryd( 5f)     0.00001       5.98483
   411    O    9  f(C3)  Ryd( 4f)     0.00015       4.36233
   412    O    9  f(C3)  Ryd( 5f)     0.00006       6.55922
   413    O    9  f(S3)  Ryd( 4f)     0.00004       3.71532
   414    O    9  f(S3)  Ryd( 5f)     0.00001       6.44218
 
   415    F   10  S      Cor( 1S)     1.99992     -25.02163
   416    F   10  S      Val( 2S)     1.84736      -1.44828
   417    F   10  S      Ryd( 3S)     0.00015       1.23288
   418    F   10  S      Ryd( 4S)     0.00004       3.59672
   419    F   10  S      Ryd( 5S)     0.00001      12.20817
   420    F   10  px     Val( 2p)     1.89479      -0.54396
   421    F   10  px     Ryd( 4p)     0.00042       0.99578
   422    F   10  px     Ryd( 3p)     0.00017       0.87347
   423    F   10  px     Ryd( 5p)     0.00002       5.17616
   424    F   10  py     Val( 2p)     1.69771      -0.52002
   425    F   10  py     Ryd( 4p)     0.00052       1.00457
   426    F   10  py     Ryd( 3p)     0.00017       0.79850
   427    F   10  py     Ryd( 5p)     0.00007       5.62331
   428    F   10  pz     Val( 2p)     1.89498      -0.54425
   429    F   10  pz     Ryd( 4p)     0.00032       0.95111
   430    F   10  pz     Ryd( 3p)     0.00006       0.71484
   431    F   10  pz     Ryd( 5p)     0.00002       5.06732
   432    F   10  dxy    Ryd( 4d)     0.00108       3.32135
   433    F   10  dxy    Ryd( 3d)     0.00004       3.01497
   434    F   10  dxy    Ryd( 5d)     0.00001       8.76402
   435    F   10  dxz    Ryd( 4d)     0.00041       2.70020
   436    F   10  dxz    Ryd( 3d)     0.00004       2.15623
   437    F   10  dxz    Ryd( 5d)     0.00000       8.63396
   438    F   10  dyz    Ryd( 4d)     0.00106       3.17450
   439    F   10  dyz    Ryd( 3d)     0.00008       2.93629
   440    F   10  dyz    Ryd( 5d)     0.00001       8.69530
   441    F   10  dx2y2  Ryd( 4d)     0.00104       3.19227
   442    F   10  dx2y2  Ryd( 3d)     0.00008       2.80592
   443    F   10  dx2y2  Ryd( 5d)     0.00001       8.77334
   444    F   10  dz2    Ryd( 4d)     0.00050       2.89381
   445    F   10  dz2    Ryd( 3d)     0.00007       2.54882
   446    F   10  dz2    Ryd( 5d)     0.00001       8.69131
   447    F   10  f(0)   Ryd( 4f)     0.00004       3.46668
   448    F   10  f(0)   Ryd( 5f)     0.00001       8.12686
   449    F   10  f(C1)  Ryd( 4f)     0.00003       3.41079
   450    F   10  f(C1)  Ryd( 5f)     0.00001       8.05581
   451    F   10  f(S1)  Ryd( 4f)     0.00009       3.52251
   452    F   10  f(S1)  Ryd( 5f)     0.00002       8.23293
   453    F   10  f(C2)  Ryd( 4f)     0.00005       3.49772
   454    F   10  f(C2)  Ryd( 5f)     0.00002       8.18264
   455    F   10  f(S2)  Ryd( 4f)     0.00008       3.51093
   456    F   10  f(S2)  Ryd( 5f)     0.00002       8.15015
   457    F   10  f(C3)  Ryd( 4f)     0.00009       3.60230
   458    F   10  f(C3)  Ryd( 5f)     0.00002       8.27571
   459    F   10  f(S3)  Ryd( 4f)     0.00007       3.56142
   460    F   10  f(S3)  Ryd( 5f)     0.00002       8.28976
 
   461    C   11  S      Cor( 1S)     1.99922     -10.71451
   462    C   11  S      Val( 2S)     0.79667      -0.25149
   463    C   11  S      Ryd( 4S)     0.00385       2.04685
   464    C   11  S      Ryd( 3S)     0.00041       1.63432
   465    C   11  S      Ryd( 5S)     0.00007       3.46444
   466    C   11  px     Val( 2p)     0.90454      -0.15481
   467    C   11  px     Ryd( 4p)     0.00624       1.60787
   468    C   11  px     Ryd( 3p)     0.00025       1.16092
   469    C   11  px     Ryd( 5p)     0.00006       1.62411
   470    C   11  py     Val( 2p)     0.60025      -0.11337
   471    C   11  py     Ryd( 4p)     0.01057       1.57644
   472    C   11  py     Ryd( 3p)     0.00024       1.13716
   473    C   11  py     Ryd( 5p)     0.00008       1.58464
   474    C   11  pz     Val( 2p)     0.60986      -0.11420
   475    C   11  pz     Ryd( 5p)     0.00893       1.49194
   476    C   11  pz     Ryd( 3p)     0.00022       1.08391
   477    C   11  pz     Ryd( 4p)     0.00007       1.39320
   478    C   11  dxy    Ryd( 4d)     0.00168       2.40373
   479    C   11  dxy    Ryd( 3d)     0.00049       2.35228
   480    C   11  dxy    Ryd( 5d)     0.00009       2.67186
   481    C   11  dxz    Ryd( 3d)     0.00238       2.13020
   482    C   11  dxz    Ryd( 4d)     0.00034       2.16224
   483    C   11  dxz    Ryd( 5d)     0.00004       2.20982
   484    C   11  dyz    Ryd( 4d)     0.00409       2.33415
   485    C   11  dyz    Ryd( 5d)     0.00019       2.47348
   486    C   11  dyz    Ryd( 3d)     0.00003       2.29242
   487    C   11  dx2y2  Ryd( 5d)     0.00304       2.68276
   488    C   11  dx2y2  Ryd( 3d)     0.00017       2.30087
   489    C   11  dx2y2  Ryd( 4d)     0.00006       2.58298
   490    C   11  dz2    Ryd( 4d)     0.00372       2.48662
   491    C   11  dz2    Ryd( 3d)     0.00028       2.46638
   492    C   11  dz2    Ryd( 5d)     0.00005       2.70334
   493    C   11  f(0)   Ryd( 5f)     0.00024       3.90982
   494    C   11  f(0)   Ryd( 4f)     0.00007       3.41691
   495    C   11  f(C1)  Ryd( 5f)     0.00021       4.13360
   496    C   11  f(C1)  Ryd( 4f)     0.00005       4.11612
   497    C   11  f(S1)  Ryd( 5f)     0.00067       3.62661
   498    C   11  f(S1)  Ryd( 4f)     0.00003       3.11807
   499    C   11  f(C2)  Ryd( 5f)     0.00030       3.81374
   500    C   11  f(C2)  Ryd( 4f)     0.00006       2.99039
   501    C   11  f(S2)  Ryd( 5f)     0.00021       4.00176
   502    C   11  f(S2)  Ryd( 4f)     0.00001       3.35194
   503    C   11  f(C3)  Ryd( 5f)     0.00014       4.22726
   504    C   11  f(C3)  Ryd( 4f)     0.00012       3.43060
   505    C   11  f(S3)  Ryd( 5f)     0.00041       3.85868
   506    C   11  f(S3)  Ryd( 4f)     0.00006       2.78845
 
   507    F   12  S      Cor( 1S)     1.99993     -25.02136
   508    F   12  S      Val( 2S)     1.84839      -1.44764
   509    F   12  S      Ryd( 3S)     0.00016       1.25721
   510    F   12  S      Ryd( 4S)     0.00003       3.56931
   511    F   12  S      Ryd( 5S)     0.00001      12.31948
   512    F   12  px     Val( 2p)     1.90298      -0.54409
   513    F   12  px     Ryd( 4p)     0.00042       0.99796
   514    F   12  px     Ryd( 3p)     0.00017       0.88815
   515    F   12  px     Ryd( 5p)     0.00002       5.13354
   516    F   12  py     Val( 2p)     1.73614      -0.52372
   517    F   12  py     Ryd( 4p)     0.00046       0.99812
   518    F   12  py     Ryd( 3p)     0.00015       0.77889
   519    F   12  py     Ryd( 5p)     0.00006       5.50089
   520    F   12  pz     Val( 2p)     1.84833      -0.53760
   521    F   12  pz     Ryd( 4p)     0.00038       0.95858
   522    F   12  pz     Ryd( 3p)     0.00008       0.76397
   523    F   12  pz     Ryd( 5p)     0.00003       5.18550
   524    F   12  dxy    Ryd( 4d)     0.00089       3.18213
   525    F   12  dxy    Ryd( 3d)     0.00004       2.77699
   526    F   12  dxy    Ryd( 5d)     0.00001       8.74118
   527    F   12  dxz    Ryd( 4d)     0.00054       2.80173
   528    F   12  dxz    Ryd( 3d)     0.00004       2.31730
   529    F   12  dxz    Ryd( 5d)     0.00000       8.64823
   530    F   12  dyz    Ryd( 4d)     0.00133       3.27435
   531    F   12  dyz    Ryd( 3d)     0.00011       3.24611
   532    F   12  dyz    Ryd( 5d)     0.00001       8.68119
   533    F   12  dx2y2  Ryd( 4d)     0.00084       3.07449
   534    F   12  dx2y2  Ryd( 3d)     0.00008       2.62051
   535    F   12  dx2y2  Ryd( 5d)     0.00001       8.75066
   536    F   12  dz2    Ryd( 4d)     0.00050       2.94339
   537    F   12  dz2    Ryd( 3d)     0.00005       2.45336
   538    F   12  dz2    Ryd( 5d)     0.00001       8.71194
   539    F   12  f(0)   Ryd( 4f)     0.00004       3.50766
   540    F   12  f(0)   Ryd( 5f)     0.00001       8.18661
   541    F   12  f(C1)  Ryd( 4f)     0.00004       3.43967
   542    F   12  f(C1)  Ryd( 5f)     0.00001       8.09828
   543    F   12  f(S1)  Ryd( 4f)     0.00010       3.53885
   544    F   12  f(S1)  Ryd( 5f)     0.00003       8.22610
   545    F   12  f(C2)  Ryd( 4f)     0.00007       3.51578
   546    F   12  f(C2)  Ryd( 5f)     0.00002       8.15571
   547    F   12  f(S2)  Ryd( 4f)     0.00009       3.54907
   548    F   12  f(S2)  Ryd( 5f)     0.00002       8.13516
   549    F   12  f(C3)  Ryd( 4f)     0.00007       3.55296
   550    F   12  f(C3)  Ryd( 5f)     0.00002       8.20849
   551    F   12  f(S3)  Ryd( 4f)     0.00005       3.52813
   552    F   12  f(S3)  Ryd( 5f)     0.00002       8.23616
 
   553    F   13  S      Cor( 1S)     1.99993     -25.01934
   554    F   13  S      Val( 2S)     1.85107      -1.44491
   555    F   13  S      Ryd( 3S)     0.00019       1.14180
   556    F   13  S      Ryd( 4S)     0.00004       3.37343
   557    F   13  S      Ryd( 5S)     0.00001      12.63132
   558    F   13  px     Val( 2p)     1.90960      -0.54110
   559    F   13  px     Ryd( 4p)     0.00039       0.99493
   560    F   13  px     Ryd( 3p)     0.00013       0.90342
   561    F   13  px     Ryd( 5p)     0.00001       5.02932
   562    F   13  py     Val( 2p)     1.94066      -0.54556
   563    F   13  py     Ryd( 4p)     0.00022       1.00553
   564    F   13  py     Ryd( 3p)     0.00008       0.82016
   565    F   13  py     Ryd( 5p)     0.00001       4.94654
   566    F   13  pz     Val( 2p)     1.63427      -0.50713
   567    F   13  pz     Ryd( 4p)     0.00059       0.96366
   568    F   13  pz     Ryd( 3p)     0.00014       0.85797
   569    F   13  pz     Ryd( 5p)     0.00008       5.69458
   570    F   13  dxy    Ryd( 4d)     0.00017       2.56492
   571    F   13  dxy    Ryd( 3d)     0.00004       2.09539
   572    F   13  dxy    Ryd( 5d)     0.00000       8.67800
   573    F   13  dxz    Ryd( 4d)     0.00117       3.36129
   574    F   13  dxz    Ryd( 3d)     0.00004       2.87319
   575    F   13  dxz    Ryd( 5d)     0.00001       8.70009
   576    F   13  dyz    Ryd( 4d)     0.00074       3.09791
   577    F   13  dyz    Ryd( 3d)     0.00003       2.53394
   578    F   13  dyz    Ryd( 5d)     0.00001       8.71674
   579    F   13  dx2y2  Ryd( 4d)     0.00014       2.60865
   580    F   13  dx2y2  Ryd( 3d)     0.00009       2.11947
   581    F   13  dx2y2  Ryd( 5d)     0.00000       8.65318
   582    F   13  dz2    Ryd( 3d)     0.00194       3.59028
   583    F   13  dz2    Ryd( 4d)     0.00009       3.61989
   584    F   13  dz2    Ryd( 5d)     0.00001       8.73506
   585    F   13  f(0)   Ryd( 4f)     0.00012       3.64885
   586    F   13  f(0)   Ryd( 5f)     0.00003       8.32733
   587    F   13  f(C1)  Ryd( 4f)     0.00013       3.67197
   588    F   13  f(C1)  Ryd( 5f)     0.00004       8.29331
   589    F   13  f(S1)  Ryd( 4f)     0.00011       3.58050
   590    F   13  f(S1)  Ryd( 5f)     0.00003       8.31258
   591    F   13  f(C2)  Ryd( 4f)     0.00003       3.50127
   592    F   13  f(C2)  Ryd( 5f)     0.00001       8.20153
   593    F   13  f(S2)  Ryd( 4f)     0.00006       3.47910
   594    F   13  f(S2)  Ryd( 5f)     0.00001       8.16635
   595    F   13  f(C3)  Ryd( 4f)     0.00000       3.35916
   596    F   13  f(C3)  Ryd( 5f)     0.00000       7.93919
[...]
 4,0.1158188,1.6635225,-0.083396,-0.0056476,-0.083455,0.3412726,-1.1471
 887,0.3594075,-0.023331,0.2830382,-0.9659802,0.0380173,-0.0185273,0.03
 8088,-0.3681767,-0.9152883,-0.4964534,0.0307117,-0.4894655,-1.0386104,
 0.0424151,0.0302721,0.0424086,-0.3597517,-0.6636593,-0.271459,0.016705
 7,-0.2749883,-0.7179791,0.0274499,0.0169306,0.0274548,-0.2789235,2.226
 0708,-0.0074625,0.0010504,-0.0507949,1.4652904,0.0083901,0.0037694,0.0
 084303,1.5988972,-0.6999899,0.1509943,0.2182505,0.2028898,-0.4231875,-
 0.2478463,0.2431251,-0.2292794,-0.6331894,-0.6990926,0.1220763,-0.2354
 844,0.1704145,-0.3671688,0.2145596,-0.2666531,0.195898,-0.6900948,0.08
 55128,-0.0295597,0.0018185,-0.0321058,0.0347015,0.0059313,0.0019785,0.
 0059341,0.1290992,0.0510085,0.0388519,-0.0025179,0.0468091,0.0236776,0
 .0068175,-0.0030189,0.0068111,0.13095,0.0734526,-0.0313125,0.0019149,-
 0.0355969,0.0317605,0.0063311,0.0021842,0.0063345,0.1325344,0.0941697,
 0.0316081,-0.002019,0.0192321,0.0479484,0.0050188,-0.0012408,0.00503,0
 .1271342,0.3520173,0.0813843,-0.0051002,0.1126055,0.2837948,0.0030942,
 -0.0070641,0.0030652,0.3311277\Polar=137.3047974,-1.2979852,103.756833
 8,0.1508158,-2.5941196,62.6985292\Quadrupole=-2.1878091,3.1867498,-0.9
 989408,5.9779998,-0.3770984,-0.2587549\PG=C01 [X(C8H5F3O2)]\NImag=0\\0
 .65605934,0.00050159,0.72373257,0.00043823,-0.03616264,0.15109388,-0.1
 7153093,0.04504439,-0.00293152,0.71037867,0.11573660,-0.28462844,0.013
 88984,0.04523233,0.72784360,-0.00737827,0.01382425,-0.06638953,-0.0023
 1987,-0.03674878,0.14526207,-0.02829243,0.08503891,-0.00538225,-0.3536
 9537,-0.03783987,0.00211248,0.71179179,0.02752936,0.03960203,-0.002001
 12,0.04085026,-0.13261663,0.00433331,-0.04104172,0.72438618,-0.0017645
 8,-0.00194769,0.00750258,-0.00283733,0.00426045,-0.06459510,0.00311170
 ,-0.03686123,0.14130121,-0.00313085,-0.00237788,0.00015310,-0.02959575
 ,-0.02914487,0.00180029,-0.17563873,-0.12191222,0.00756738,0.67300649,
 -0.00120718,-0.07933295,0.00457024,-0.08942782,0.04162076,-0.00233295,
 -0.04262374,-0.28326707,0.01362040,-0.01157943,0.71997742,0.00007897,0
 .00456915,-0.00694582,0.00559234,-0.00227708,0.00599392,0.00258000,0.0
 1354695,-0.06695482,0.00118225,-0.03390837,0.18321053,-0.02879284,-0.0
 8366011,0.00522927,-0.06312973,0.03578625,-0.00230431,0.07689688,0.030
 68503,-0.00186677,-0.17834522,0.04502063,-0.00293876,0.70480350,-0.026
 49095,0.04067503,-0.00215379,0.03644950,-0.02081176,0.00099996,-0.0304
 2493,-0.06185601,0.00438804,0.12484765,-0.29176866,0.01453925,0.042152
 10,0.73438461,0.00163349,-0.00220691,0.00696560,-0.00234628,0.00099934
 ,-0.00551678,0.00197724,0.00444465,0.00807423,-0.00796010,0.01446537,-
 0.06337949,-0.00212780,-0.03741345,0.14132122,-0.17375197,-0.04944169,
 0.00301104,0.07553755,-0.02892984,0.00188303,-0.06311936,-0.03650415,0
 .00224226,-0.02587046,0.09034877,-0.00571150,-0.34769555,-0.03968422,0
 .00223483,0.71432037,-0.12028226,-0.28747937,0.01375654,0.02804592,-0.
 06044828,0.00428411,-0.03583740,-0.02083075,0.00096174,0.03194177,0.03
 933952,-0.00214545,0.03828753,-0.13295227,0.00428958,-0.03960354,0.728
 57285,0.00746702,0.01382228,-0.06787218,-0.00170088,0.00423128,0.00697
 827,0.00220056,0.00096111,-0.00507107,-0.00203778,-0.00209141,0.004893
 12,-0.00266960,0.00421744,-0.06559093,0.00301888,-0.03678300,0.1467028
 9,-0.20529606,0.00192049,-0.00023172,-0.01589745,0.01379646,-0.0008832
 1,0.00405000,0.00224911,-0.00014558,0.00391504,0.00060076,-0.00003336,
 0.00357871,-0.00289377,0.00017755,-0.02584993,-0.01574543,0.00096422,0
 .75370089,-0.00940243,-0.09787438,0.00077516,0.02658076,0.00901233,-0.
 00050106,0.00565481,-0.00550081,0.00088673,0.00053472,-0.00530316,0.00
 028347,-0.00724064,-0.00546765,0.00086854,-0.02517739,0.01182534,-0.00
 061656,-0.19108423,0.88991314,0.00048048,0.00078562,-0.08546140,-0.001
 68735,-0.00051288,0.00068604,-0.00035980,0.00088359,0.00845721,-0.0000
 2933,0.00028354,-0.00082244,0.00045098,0.00087254,0.00839225,0.0015575
 3,-0.00060780,0.00243391,0.01251695,-0.04252760,0.21932616,-0.03414557
 ,0.04598861,-0.00294458,-0.00573019,-0.00706905,0.00043716,-0.00307605
 ,0.00138862,-0.00008854,-0.00160282,0.00148597,-0.00009509,0.00096886,
 0.00066089,-0.00003983,-0.00066299,0.00376458,-0.00023758,-0.31666089,
 0.29146265,-0.01855306,0.32147206,0.02700285,-0.00730335,0.00185382,0.
 00065473,0.00240938,-0.00000182,0.00070377,0.00068447,-0.00015410,0.00
 006834,0.00061057,-0.00003165,0.00174685,0.00124453,-0.00013333,-0.004
 92387,-0.00673152,0.00043043,0.30090689,-0.55918305,0.03043180,-0.3438
 6900,0.67878933,-0.00175032,0.00187139,0.02165096,-0.00004868,-0.00000
 899,0.00237133,-0.00004548,-0.00015346,-0.00176601,-0.00000586,-0.0000
 3035,0.00010797,-0.00010817,-0.00013434,-0.00089249,0.00030894,0.00043
 849,0.00015658,-0.01914714,0.03042305,-0.08175168,0.02189676,-0.040898
 67,0.03625440,-0.02862065,-0.04265585,0.00264565,-0.00485756,-0.001180
 76,0.00006942,0.00071196,-0.00047664,0.00003133,-0.00127311,-0.0013880
 2,0.00008603,-0.00222966,-0.00154063,0.00009533,-0.00545907,0.00551451
 ,-0.00035308,-0.17071350,-0.08167046,0.00504004,0.03932556,0.00867747,
 -0.00053702,0.66773443,-0.01273769,-0.00436016,0.00101131,0.00102893,-
 0.00410187,0.00028388,-0.00104458,0.00077843,-0.00009684,-0.00072011,0
 .00019117,-0.00000835,-0.00016247,0.00091028,-0.00009038,0.00035358,0.
 00162587,-0.00002373,-0.05441769,-0.24014152,0.01092471,-0.00246061,-0
 .11455821,0.00907888,0.01347953,0.41677250,0.00076371,0.00098361,0.011
 84346,-0.00006958,0.00028182,0.00037812,0.00006705,-0.00009630,-0.0007
 3953,0.00004406,-0.00000896,0.00006990,0.00000864,-0.00009165,-0.00051
 835,-0.00002844,-0.00001895,0.00124462,0.00332577,0.01089947,-0.066347
 11,0.00016358,0.00908919,0.02923818,-0.00026535,-0.02377385,0.04012371
 ,-0.00121998,-0.00047346,0.00002864,-0.00086813,-0.00269298,0.00016921
 ,-0.00774027,0.00494070,-0.00031952,-0.01897932,-0.04618298,0.00287720
 ,-0.00148470,-0.00071689,0.00004365,0.00058139,-0.00045225,0.00002898,
 0.00249982,-0.00013540,0.00001088,-0.00121740,0.00056682,-0.00003681,-
 0.00094488,-0.00042110,0.00002559,0.13833211,-0.00047100,0.00035001,-0
 .00002101,0.00057784,-0.00107833,0.00003325,-0.00414859,0.00234895,-0.
 00005262,-0.01105591,-0.01803075,0.00170154,0.00302143,-0.00431663,0.0
 0027827,-0.00044006,0.00170122,-0.00010607,0.00136973,-0.00008967,0.00
 000271,-0.00071526,0.00050761,-0.00003054,-0.00028964,-0.00003022,0.00
 000339,0.12294359,0.36907434,0.00002846,-0.00002094,0.00002448,-0.0000
 3656,0.00003004,-0.00056118,0.00025209,-0.00004402,0.00157812,0.000669
 05,0.00166910,0.00909441,-0.00019138,0.00027458,0.00004345,0.00002815,
 -0.00010614,0.00002710,-0.00008375,0.00000132,-0.00006681,0.00004382,-
 0.00002934,0.00003453,0.00001731,0.00000327,0.00002775,-0.00767455,-0.
 01803098,0.08154758,0.00657756,0.00094192,-0.00005255,0.00203873,-0.00
 100112,0.00005889,-0.01631121,-0.01009916,0.00062085,-0.21827248,0.004
 68657,-0.00043141,-0.01326504,0.00994777,-0.00064083,0.00081641,-0.000
 17585,0.00000503,-0.01092279,-0.00042906,0.00001773,0.00473310,-0.0018
 3463,0.00011980,0.00363128,0.00228384,-0.00014022,-0.14134028,-0.09833
 588,0.00611845,0.62996574,-0.00020630,-0.00445846,0.00024421,-0.006692
 52,-0.00533247,0.00072977,-0.02707914,0.00964711,-0.00067316,0.0016668
 5,-0.09383176,0.00149777,0.02459422,0.01024177,-0.00042668,0.00523169,
 -0.00609232,0.00084390,0.00049773,-0.00028123,-0.00003988,0.00007625,-
 0.00010055,0.00000530,-0.00053682,-0.00032479,0.00001446,-0.08727835,-
 0.23167441,0.00987465,0.00810679,0.56180668,0.00001958,0.00024525,-0.0
 0058856,0.00041688,0.00073510,0.00632206,0.00168872,-0.00065790,-0.000
 61867,-0.00024178,0.00150061,-0.07013952,-0.00156227,-0.00043979,0.003
 12755,-0.00033513,0.00083885,0.00719400,-0.00004052,-0.00004074,-0.000
 92009,-0.00000043,0.00000353,-0.00001769,0.00003718,0.00001706,-0.0000
 8809,0.00542326,0.00986415,-0.07391914,-0.00040170,-0.00301888,0.51387
 921,-0.00201517,0.00093536,0.00004314,0.00116719,-0.00009647,-0.001012
 46,-0.00095443,0.00151046,-0.00006302,-0.01909688,0.02799923,0.0346464
 0,-0.00322680,-0.00404945,0.00174518,-0.00124417,0.00056905,-0.0020619
 8,0.00330329,0.00030052,0.00020619,-0.00145987,0.00046346,-0.00005939,
 -0.00112087,-0.00077261,0.00002600,0.01825900,-0.00698634,-0.00980088,
 -0.12529148,0.04535298,0.06867738,0.11409082,0.00073835,0.00058309,-0.
 00023322,0.00100810,0.00057383,0.00116932,-0.00003248,-0.00216663,0.00
 075948,0.00931453,-0.00019230,-0.01448676,0.00097280,0.00049154,-0.000
 03003,-0.00039121,0.00022350,0.00085253,-0.00127765,-0.00012661,-0.000
 22199,0.00047236,-0.00007691,0.00006475,0.00049985,0.00038946,0.000016
 52,0.00493077,-0.06665678,-0.04667062,0.04809418,-0.12622366,-0.076680
 12,-0.06000361,0.17456981,0.00060627,0.00006244,-0.00014303,0.00029258
 ,0.00026878,0.00046327,-0.00042470,-0.00116807,0.00138187,0.01106045,-
 0.01455398,-0.00758530,0.00312405,0.00183073,-0.00083129,0.00031822,-0
 .00088998,0.00062060,-0.00125850,-0.00014520,-0.00014547,0.00057341,-0
 .00010968,0.00007723,0.00050610,0.00036167,0.00004679,-0.00360386,-0.0
 3599064,-0.00299581,0.07042765,-0.07445353,-0.18088199,-0.08825504,0.1
 3742036,0.28054667,-0.00201369,0.00092260,-0.00016344,0.00116604,0.000
 03173,0.00101750,-0.00095514,0.00150346,-0.00013080,-0.01900831,0.0234
 1379,-0.03789615,-0.00321869,-0.00423316,-0.00122894,-0.00124742,0.000
 82125,0.00197101,0.00330114,0.00027246,-0.00023578,-0.00145878,0.00046
 682,-0.00000197,-0.00111990,-0.00076920,0.00006877,0.01823408,-0.00577
 374,0.01065222,-0.12502572,0.03627364,-0.07368815,0.01840693,-0.004424
 16,0.00642596,0.11375407,0.00065605,0.00059297,0.00014149,0.00096556,0
 .00039357,-0.00115863,0.00002158,-0.00206017,-0.00032494,0.00782941,0.
 00330287,0.01312296,0.00057386,0.00024683,-0.00010500,-0.00042655,0.00
 023438,-0.00080440,-0.00111000,-0.00008138,0.00021181,0.00039675,-0.00
 006880,-0.00004556,0.00043247,0.00033707,-0.00005238,0.00525389,-0.055
 38880,0.05329429,0.03877052,-0.10829569,0.06758275,-0.00516967,0.01734
 841,-0.01318440,-0.04826244,0.14207513,-0.00069732,-0.00015384,-0.0001
 5441,-0.00041563,-0.00025994,0.00064478,0.00042138,0.00160560,0.001275
 90,-0.01215553,0.01322179,-0.01116949,-0.00322616,-0.00197504,-0.00059
 486,-0.00027008,0.00094035,0.00061269,0.00141496,0.00013775,-0.0001886
 4,-0.00063084,0.00012889,0.00006806,-0.00056690,-0.00039979,0.00009827
 ,0.00301291,0.04259331,-0.01423851,-0.07576834,0.06535105,-0.19907707,
 -0.00562369,-0.00026588,-0.08914609,0.09472206,-0.12002230,0.31338000,
 0.01223787,0.01296466,-0.00080777,-0.13311391,-0.12794510,0.00796246,-
 0.01013689,-0.02673796,0.00166797,-0.00549136,0.00075212,-0.00005956,-
 0.00091749,0.00091780,-0.00005764,-0.00124160,0.00370636,-0.00024035,0
 .00183300,0.00123835,-0.00007249,0.00004208,-0.00089894,0.00005603,-0.
 00431158,0.00017675,-0.00001528,-0.00073795,-0.00037521,0.00002307,0.0
 0063403,-0.00145825,0.00009195,-0.00010523,0.00020402,0.00012766,-0.00
 010479,0.00018638,-0.00015218,0.13962562,-0.01507820,-0.01812315,0.001
 36563,-0.12601637,-0.27485528,0.01461315,0.00252979,0.00581330,-0.0000
 5868,0.00110753,0.00148300,0.00040050,0.00077335,0.00020753,-0.0000762
 5,0.00392998,-0.00299639,0.00060455,-0.00195372,-0.00220891,-0.0001148
 1,0.00020604,0.00090877,-0.00001905,-0.00070806,0.00134720,-0.00007379
 ,0.00013868,0.00008229,-0.00001678,0.00018034,0.00023235,0.00000943,-0
 .00004024,-0.00000471,0.00000911,-0.00005254,-0.00000367,-0.00002361,0
 .13621445,0.28784397,0.00095619,0.00139173,0.00372422,0.00784110,0.014
 61135,-0.04159769,-0.00017302,-0.00008572,0.00484950,-0.00008202,0.000
 40006,0.00780737,-0.00004856,-0.00007613,-0.00101090,-0.00025441,0.000
 60430,0.00651772,0.00012828,-0.00011185,-0.00399816,-0.00001348,-0.000
 02008,0.00060398,0.00004038,-0.00007297,0.00018921,-0.00000922,-0.0000
 1725,-0.00018552,-0.00001110,0.00000789,0.00037908,0.00010090,-0.00003
 155,-0.00011754,-0.00009505,0.00001751,-0.00011901,-0.00846391,-0.0162
 7671,0.02809128,-0.00545767,-0.00117447,0.00006161,-0.01024483,0.02810
 185,-0.00178108,-0.13144725,0.12337318,-0.00784582,0.01234858,-0.01394
 135,0.00088460,-0.00132743,-0.00339600,0.00020618,-0.00091755,-0.00083
 188,0.00005245,0.00071178,0.00156498,-0.00009802,-0.00093507,0.0002475
 8,-0.00001622,-0.00019276,-0.00028939,0.00001801,0.00027768,0.00046117
 ,-0.00002864,0.00076016,-0.00170284,0.00010933,-0.00049512,0.00036001,
 0.00012207,-0.00049385,0.00034010,-0.00016537,0.00115031,-0.00037478,0
 .00002874,0.13566791,-0.00077824,0.00157971,0.00038680,-0.00209748,0.0
 0518743,-0.00006218,0.12295669,-0.27260996,0.01479232,0.01484007,-0.01
 810157,0.00140870,-0.00396523,-0.00285109,0.00059781,-0.00083181,0.000
 24640,-0.00008347,-0.00031046,0.00022252,0.00000143,-0.00002518,-0.000
 01344,-0.00001409,0.00008877,0.00001986,-0.00000020,-0.00009191,0.0006
 0053,-0.00004574,0.00171771,-0.00277294,0.00007703,-0.00030112,0.00100
 194,0.00040119,-0.00038575,0.00105380,-0.00065141,0.00031341,0.0005404
 7,-0.00030861,-0.13203171,0.28672402,0.00003675,0.00038636,0.00771493,
 0.00011858,-0.00003427,0.00423269,-0.00781969,0.01479281,-0.04019589,-
 0.00092583,0.00138221,0.00398899,0.00024199,0.00059826,0.00667281,0.00
 005245,-0.00008350,-0.00106304,0.00001997,0.00000317,0.00024971,0.0000
 0094,-0.00001384,-0.00023617,-0.00000578,-0.00000055,0.00001534,0.0000
 0613,-0.00004524,-0.00012260,-0.00010585,0.00007379,-0.00157894,0.0007
 0299,-0.00106006,-0.00092157,-0.00065893,0.00081112,-0.00097475,-0.000
 01467,-0.00030922,-0.00434964,0.00840660,-0.01651523,0.02716087,-0.005
 28284,0.00100457,-0.00007524,-0.00101304,0.00089608,-0.00005639,-0.001
 23890,0.00353523,-0.00022967,0.01225151,0.01255760,-0.00078261,-0.1331
 9585,-0.12724827,0.00791749,-0.01014661,-0.02727543,0.00170251,0.00051
 315,-0.00161080,0.00010162,-0.00019656,0.00034288,-0.00002182,-0.00074
 163,-0.00008928,0.00000505,-0.00376521,0.00036567,-0.00002623,0.001268
 84,0.00175700,-0.00010638,0.00004073,-0.00049586,-0.00026582,0.0000417
 8,-0.00045956,0.00032673,0.00000701,-0.00009238,0.00000678,0.00056287,
 0.00083471,-0.00005233,0.13978008,0.00099044,0.00155947,0.00038514,0.0
 0085895,0.00021197,-0.00007403,0.00378139,-0.00292117,0.00060486,-0.01
 439134,-0.01810162,0.00140253,-0.12572294,-0.27401663,0.01462256,0.002
 17997,0.00571797,-0.00010016,0.00021012,0.00023414,-0.00000267,-0.0000
 6660,-0.00001620,0.00000523,0.00007238,0.00001128,-0.00000860,-0.00044
 714,0.00259252,-0.00018444,-0.00238501,-0.00294775,-0.00001448,0.00026
 035,0.00032552,0.00012574,0.00015443,0.00036635,-0.00022016,-0.0000786
 8,-0.00000794,-0.00006516,-0.00081385,-0.00081626,0.00007455,0.1357005
 9,0.28729429,-0.00007429,0.00038528,0.00764520,-0.00005405,-0.00007402
 ,-0.00097357,-0.00024515,0.00060475,0.00660215,0.00091252,0.00142735,0
 .00431696,0.00782152,0.01462112,-0.04060833,-0.00015028,-0.00012746,0.
 00409999,-0.00001290,-0.00000437,0.00018874,0.00000394,0.00000562,0.00
 006772,-0.00000512,-0.00000875,-0.00012598,0.00002488,-0.00018375,-0.0
 0032178,0.00015415,-0.00001056,-0.00314117,0.00083171,-0.00054364,-0.0
 0038378,-0.00085691,0.00044796,-0.00042545,0.00000592,-0.00006517,-0.0
 0103855,0.00005137,0.00007605,0.00037595,-0.00843137,-0.01624503,0.028
 04822,0.01301919,-0.01266235,0.00080388,-0.00151331,-0.00351149,0.0002
 1347,-0.00084260,-0.00091078,0.00005759,-0.00545338,-0.00065329,0.0000
 2915,-0.00961172,0.02617454,-0.00165974,-0.13336073,0.12726472,-0.0080
 9019,0.00059250,-0.00218438,0.00014187,-0.00210857,0.00052131,-0.00003
 452,0.00042524,0.00143672,-0.00009009,-0.00005367,-0.00023465,0.000014
 67,0.00064901,0.00135790,-0.00008480,-0.00045504,0.00010103,0.00030227
 ,-0.00045472,0.00006225,-0.00031349,0.00064013,-0.00088493,0.00005591,
 0.00001921,0.00008166,-0.00000419,0.00115992,-0.00033366,0.00002598,0.
 13743023,0.01478543,-0.01906260,0.00152377,-0.00384146,-0.00293879,0.0
 0059059,-0.00076013,0.00021933,-0.00008835,-0.00122172,0.00151761,0.00
 037588,-0.00267666,0.00611342,-0.00008874,0.12556645,-0.27249352,0.014
 64941,0.00217488,-0.00275567,-0.00008996,0.00058794,0.00237030,-0.0001
 6383,0.00000300,0.00087182,-0.00004749,0.00002060,-0.00003544,0.000004
 53,-0.00010978,0.00034320,-0.00002258,-0.00008356,-0.00000754,0.000067
 07,-0.00006892,-0.00000990,-0.00005898,0.00081780,-0.00085445,0.000078
 20,0.00009060,-0.00001182,-0.00006193,0.00039027,0.00049507,-0.0003003
 0,-0.13553183,0.28632627,-0.00092259,0.00149821,0.00484741,0.00023422,
 0.00059097,0.00647096,0.00004809,-0.00008850,-0.00116892,0.00006482,0.
 00037650,0.00748873,0.00015509,-0.00006212,0.00474472,-0.00798342,0.01
 465104,-0.04237452,-0.00013237,-0.00009399,-0.00421196,-0.00003871,-0.
 00016390,-0.00023279,0.00000010,-0.00004616,0.00011979,-0.00000139,0.0
 0000429,0.00003604,0.00000752,-0.00002120,-0.00001289,-0.00011128,-0.0
 0004011,0.00005546,0.00011994,0.00004848,0.00005747,-0.00005120,0.0000
 7661,0.00037167,-0.00000476,-0.00006192,-0.00099364,-0.00001946,-0.000
 30095,-0.00426675,0.00862666,-0.01638478,0.02887751,0.00165669,-0.0028
 1729,0.00017450,0.00090201,-0.00016973,0.00001167,-0.00000200,0.000117
 23,-0.00000746,0.00023704,0.00013837,-0.00000850,0.00019277,-0.0004719
 6,0.00003023,-0.00068832,0.00028834,-0.00001923,-0.03265871,-0.0086744
 6,0.00051156,0.00271312,0.00915667,-0.00056814,-0.49024331,0.05512537,
 -0.00390728,0.00016772,0.00008688,-0.00000531,-0.00064586,0.00003917,-
 0.00000313,0.00019711,-0.00007102,-0.00007877,0.00019698,-0.00006061,0
 .00008748,-0.00000922,0.00012105,-0.00000751,0.00001303,-0.00001415,0.
 00000088,-0.00004524,0.00003059,-0.00000191,-0.00008170,-0.00014288,0.
 00000873,0.51809788,-0.00128640,-0.00605202,0.00066785,0.00077839,-0.0
 0044099,0.00001786,0.00014565,0.00034940,-0.00001642,0.00025261,-0.000
 11307,0.00000896,-0.00018601,-0.00047485,0.00000465,-0.00125611,0.0005
 3739,-0.00000414,-0.05493320,0.00780657,-0.00028014,0.00771505,0.00052
 708,-0.00038820,0.10167889,-0.05973817,0.00288371,0.00009741,0.0000435
 3,-0.00000279,-0.00035918,0.00006493,0.00000074,0.00011164,-0.00005195
 ,-0.00005162,0.00010971,-0.00004299,0.00005220,0.00000205,0.00059562,-
 0.00004500,0.00001683,0.00000041,0.00000156,-0.00011301,0.00001898,-0.
 00000506,-0.00009277,-0.00008726,0.00001753,-0.05268155,0.05705740,0.0
 0007822,0.00066643,0.00454220,-0.00004797,0.00001698,-0.00016963,-0.00
 000925,-0.00001644,0.00008725,-0.00001569,0.00000884,0.00002499,0.0000
 1225,0.00000440,-0.00039838,0.00007792,-0.00000271,0.00049026,0.003421
 37,-0.00023730,0.00417975,-0.00047746,-0.00038687,-0.00573411,-0.00683
 564,0.00284060,-0.01557606,-0.00000597,-0.00000280,-0.00000210,0.00002
 192,0.00000111,0.00008192,0.00000785,-0.00001898,-0.00004001,-0.000021
 33,0.00001924,-0.00004885,-0.00000003,-0.00004490,-0.00011700,-0.00000
 107,0.00000154,0.00002495,0.00000712,-0.00000493,-0.00005956,0.0000055
 8,0.00001749,0.00019171,0.00378217,-0.00286169,0.01252267\\0.00000023,
 0.00000050,-0.00000002,-0.00000058,0.00000042,0.,-0.00000051,-0.000000
 30,0.00000002,-0.00000003,-0.00000071,0.00000003,0.00000065,-0.0000003
 7,0.00000004,0.00000058,0.00000043,-0.00000005,0.00000007,0.00000180,-
 0.00000013,0.00000061,0.00000159,-0.00000010,-0.00000048,0.00000148,-0
 .00000007,0.00000059,-0.00000173,0.00000016,0.00000003,-0.00000144,0.0
 0000012,-0.00000029,-0.00000172,-0.00000002,-0.00000030,-0.00000166,0.
 00000015,-0.00000111,0.00000044,-0.00000003,-0.00000105,-0.00000065,0.
 00000006,0.00000103,-0.00000069,0.00000004,0.00000111,0.00000060,-0.00
 000004,-0.00000054,0.00000202,-0.00000013\\\@
 The archive entry for this job was punched.



 IN THIS SHORT LIFE

 THAT ONLY LASTS AN HOUR

 HOW MUCH, HOW LITTLE, IS WITHIN OUR POWER....


 EMILY DICKINSON BOLTS OF MELODY NO. 521
 Job cpu time:       0 days 18 hours 34 minutes 36.7 seconds.
 Elapsed time:       0 days  0 hours 55 minutes 44.5 seconds.
 File lengths (MBytes):  RWF=    645 Int=      0 D2E=      0 Chk=     40 Scr=      1
 Normal termination of Gaussian 16 at Thu May 11 21:27:02 2023.
