 Entering Gaussian System, Link 0=g16
 Initial command:
 /usr/local/gaussian16c01/g16/l1.exe "/scr/akj/Gau-111662.inp" -scrdir="/scr/akj/"
 Entering Link 1 = /usr/local/gaussian16c01/g16/l1.exe PID=    111663.
  
 Copyright (c) 1988-2019, Gaussian, Inc.  All Rights Reserved.
  
 This is part of the Gaussian(R) 16 program.  It is based on
 the Gaussian(R) 09 system (copyright 2009, Gaussian, Inc.),
 the Gaussian(R) 03 system (copyright 2003, Gaussian, Inc.),
 the Gaussian(R) 98 system (copyright 1998, Gaussian, Inc.),
 the Gaussian(R) 94 system (copyright 1995, Gaussian, Inc.),
 the Gaussian 92(TM) system (copyright 1992, Gaussian, Inc.),
 the Gaussian 90(TM) system (copyright 1990, Gaussian, Inc.),
 the Gaussian 88(TM) system (copyright 1988, Gaussian, Inc.),
 the Gaussian 86(TM) system (copyright 1986, Carnegie Mellon
 University), and the Gaussian 82(TM) system (copyright 1983,
 Carnegie Mellon University). Gaussian is a federally registered
 trademark of Gaussian, Inc.
  
 This software contains proprietary and confidential information,
 including trade secrets, belonging to Gaussian, Inc.
  
 This software is provided under written license and may be
 used, copied, transmitted, or stored only in accord with that
 written license.
  
 The following legend is applicable only to US Government
 contracts under FAR:
  
                    RESTRICTED RIGHTS LEGEND
  
 Use, reproduction and disclosure by the US Government is
 subject to restrictions as set forth in subparagraphs (a)
 and (c) of the Commercial Computer Software - Restricted
 Rights clause in FAR 52.227-19.
  
 Gaussian, Inc.
 340 Quinnipiac St., Bldg. 40, Wallingford CT 06492
  
  
 ---------------------------------------------------------------
 Warning -- This program may not be used in any manner that
 competes with the business of Gaussian, Inc. or will provide
 assistance to any competitor of Gaussian, Inc.  The licensee
 of this program is prohibited from giving any competitor of
 Gaussian, Inc. access to this program.  By using this program,
 the user acknowledges that Gaussian, Inc. is engaged in the
 business of creating and licensing software in the field of
 computational chemistry and represents and warrants to the
 licensee that it is not a competitor of Gaussian, Inc. and that
 it will not use this program in any manner prohibited above.
 ---------------------------------------------------------------
  

 Cite this work as:
 Gaussian 16, Revision C.01,
 M. J. Frisch, G. W. Trucks, H. B. Schlegel, G. E. Scuseria, 
 M. A. Robb, J. R. Cheeseman, G. Scalmani, V. Barone, 
 G. A. Petersson, H. Nakatsuji, X. Li, M. Caricato, A. V. Marenich, 
 J. Bloino, B. G. Janesko, R. Gomperts, B. Mennucci, H. P. Hratchian, 
 J. V. Ortiz, A. F. Izmaylov, J. L. Sonnenberg, D. Williams-Young, 
 F. Ding, F. Lipparini, F. Egidi, J. Goings, B. Peng, A. Petrone, 
 T. Henderson, D. Ranasinghe, V. G. Zakrzewski, J. Gao, N. Rega, 
 G. Zheng, W. Liang, M. Hada, M. Ehara, K. Toyota, R. Fukuda, 
 J. Hasegawa, M. Ishida, T. Nakajima, Y. Honda, O. Kitao, H. Nakai, 
 T. Vreven, K. Throssell, J. A. Montgomery, Jr., J. E. Peralta, 
 F. Ogliaro, M. J. Bearpark, J. J. Heyd, E. N. Brothers, K. N. Kudin, 
 V. N. Staroverov, T. A. Keith, R. Kobayashi, J. Normand, 
 K. Raghavachari, A. P. Rendell, J. C. Burant, S. S. Iyengar, 
 J. Tomasi, M. Cossi, J. M. Millam, M. Klene, C. Adamo, R. Cammi, 
 J. W. Ochterski, R. L. Martin, K. Morokuma, O. Farkas, 
 J. B. Foresman, and D. J. Fox, Gaussian, Inc., Wallingford CT, 2019.
 
 ******************************************
 Gaussian 16:  ES64L-G16RevC.01  3-Jul-2019
                27-Apr-2023 
 ******************************************
 %nprocshared=20
 Will use up to   20 processors via shared memory.
 %mem=10000MW
 %chk=CYH-255-A_eq00004.chk
 ------------------------------------
 # opt freq M062x/aug-cc-pvtz pop=nbo
 ------------------------------------
 1/18=20,19=15,26=3,38=1/1,3;
 2/9=110,12=2,17=6,18=5,40=1/2;
 3/5=16,6=1,7=10,11=2,25=1,30=1,71=1,74=-55/1,2,3;
 4//1;
 5/5=2,38=5/2;
 6/7=2,8=2,9=2,10=2,28=1,40=1/1,7;
 7//1,2,3,16;
 1/18=20,19=15,26=3/3(2);
 2/9=110/2;
 99//99;
 2/9=110/2;
 3/5=16,6=1,7=10,11=2,25=1,30=1,71=1,74=-55/1,2,3;
 4/5=5,16=3,69=1/1;
 5/5=2,38=5/2;
 7//1,2,3,16;
 1/18=20,19=15,26=3/3(-5);
 2/9=110/2;
 6/7=2,8=2,9=2,10=2,19=2,28=1,40=1/1,7;
 99/9=1/99;
 -----------------
 CYH-255-A_eq00004
 -----------------
 Symbolic Z-matrix:
 Charge =  0 Multiplicity = 1
 C                    -0.46107   0.83996   1.5204 
 C                    -0.83962  -0.49761   1.76591 
 C                    -0.68178  -1.44087   0.79326 
 C                    -0.14071  -1.10477  -0.46744 
 C                     0.24124   0.2414   -0.71685 
 C                     0.06766   1.19614   0.30055 
 C                    -0.61842   1.88398   2.55326 
 C                     0.03429  -2.06172  -1.48777 
 C                     0.56301  -1.70434  -2.69699 
 C                     0.94073  -0.37443  -2.9433 
 C                     0.78347   0.57789  -1.9761 
 O                    -0.32583   3.04579   2.40724 
 O                    -1.12936   1.42443   3.70854 
 H                    -1.25197  -0.75467   2.72871 
 H                    -0.96979  -2.46656   0.97451 
 H                     0.35147   2.22462   0.13095 
 H                    -0.25726  -3.08445  -1.29565 
 H                     0.6945   -2.44368  -3.47344 
 H                     1.35672  -0.1122   -3.90489 
 H                     1.07137   1.60311  -2.15776 
 H                    -1.20624   2.15499   4.34138 
 

 GradGradGradGradGradGradGradGradGradGradGradGradGradGradGradGradGradGrad
 Berny optimization.
 Initialization pass.
                           ----------------------------
                           !    Initial Parameters    !
                           ! (Angstroms and Degrees)  !
 --------------------------                            --------------------------
 ! Name  Definition              Value          Derivative Info.                !
 --------------------------------------------------------------------------------
 ! R1    R(1,2)                  1.4116         estimate D2E/DX2                !
 ! R2    R(1,6)                  1.3764         estimate D2E/DX2                !
 ! R3    R(1,7)                  1.477          estimate D2E/DX2                !
 ! R4    R(2,3)                  1.3641         estimate D2E/DX2                !
 ! R5    R(2,14)                 1.0785         estimate D2E/DX2                !
 ! R6    R(3,4)                  1.4125         estimate D2E/DX2                !
 ! R7    R(3,15)                 1.0807         estimate D2E/DX2                !
 ! R8    R(4,5)                  1.4214         estimate D2E/DX2                !
 ! R9    R(4,8)                  1.4098         estimate D2E/DX2                !
 ! R10   R(5,6)                  1.406          estimate D2E/DX2                !
 ! R11   R(5,11)                 1.4117         estimate D2E/DX2                !
 ! R12   R(6,16)                 1.0803         estimate D2E/DX2                !
 ! R13   R(7,12)                 1.207          estimate D2E/DX2                !
 ! R14   R(7,13)                 1.3442         estimate D2E/DX2                !
 ! R15   R(8,9)                  1.3673         estimate D2E/DX2                !
 ! R16   R(8,17)                 1.0807         estimate D2E/DX2                !
 ! R17   R(9,10)                 1.4043         estimate D2E/DX2                !
 ! R18   R(9,18)                 1.0802         estimate D2E/DX2                !
 ! R19   R(10,11)                1.3664         estimate D2E/DX2                !
 ! R20   R(10,19)                1.08           estimate D2E/DX2                !
 ! R21   R(11,20)                1.0803         estimate D2E/DX2                !
 ! R22   R(13,21)                0.9696         estimate D2E/DX2                !
 ! A1    A(2,1,6)              120.1559         estimate D2E/DX2                !
 ! A2    A(2,1,7)              121.3039         estimate D2E/DX2                !
 ! A3    A(6,1,7)              118.5401         estimate D2E/DX2                !
 ! A4    A(1,2,3)              120.0122         estimate D2E/DX2                !
 ! A5    A(1,2,14)             118.9245         estimate D2E/DX2                !
 ! A6    A(3,2,14)             121.0633         estimate D2E/DX2                !
 ! A7    A(2,3,4)              121.0781         estimate D2E/DX2                !
 ! A8    A(2,3,15)             120.3904         estimate D2E/DX2                !
 ! A9    A(4,3,15)             118.5314         estimate D2E/DX2                !
 ! A10   A(3,4,5)              119.0072         estimate D2E/DX2                !
 ! A11   A(3,4,8)              122.1415         estimate D2E/DX2                !
 ! A12   A(5,4,8)              118.8512         estimate D2E/DX2                !
 ! A13   A(4,5,6)              118.8805         estimate D2E/DX2                !
 ! A14   A(4,5,11)             119.0441         estimate D2E/DX2                !
 ! A15   A(6,5,11)             122.0754         estimate D2E/DX2                !
 ! A16   A(1,6,5)              120.866          estimate D2E/DX2                !
 ! A17   A(1,6,16)             119.1048         estimate D2E/DX2                !
 ! A18   A(5,6,16)             120.0291         estimate D2E/DX2                !
 ! A19   A(1,7,12)             124.7489         estimate D2E/DX2                !
 ! A20   A(1,7,13)             113.5687         estimate D2E/DX2                !
 ! A21   A(12,7,13)            121.6823         estimate D2E/DX2                !
 ! A22   A(4,8,9)              120.7079         estimate D2E/DX2                !
 ! A23   A(4,8,17)             118.7013         estimate D2E/DX2                !
 ! A24   A(9,8,17)             120.5908         estimate D2E/DX2                !
 ! A25   A(8,9,10)             120.4419         estimate D2E/DX2                !
 ! A26   A(8,9,18)             120.2572         estimate D2E/DX2                !
 ! A27   A(10,9,18)            119.3009         estimate D2E/DX2                !
 ! A28   A(9,10,11)            120.3267         estimate D2E/DX2                !
 ! A29   A(9,10,19)            119.3211         estimate D2E/DX2                !
 ! A30   A(11,10,19)           120.3522         estimate D2E/DX2                !
 ! A31   A(5,11,10)            120.6281         estimate D2E/DX2                !
 ! A32   A(5,11,20)            118.5925         estimate D2E/DX2                !
 ! A33   A(10,11,20)           120.7795         estimate D2E/DX2                !
 ! A34   A(7,13,21)            109.4813         estimate D2E/DX2                !
 ! D1    D(6,1,2,3)              0.0035         estimate D2E/DX2                !
 ! D2    D(6,1,2,14)          -179.988          estimate D2E/DX2                !
 ! D3    D(7,1,2,3)           -179.9518         estimate D2E/DX2                !
 ! D4    D(7,1,2,14)             0.0567         estimate D2E/DX2                !
 ! D5    D(2,1,6,5)             -0.0739         estimate D2E/DX2                !
 ! D6    D(2,1,6,16)           179.9912         estimate D2E/DX2                !
 ! D7    D(7,1,6,5)            179.8826         estimate D2E/DX2                !
 ! D8    D(7,1,6,16)            -0.0523         estimate D2E/DX2                !
 ! D9    D(2,1,7,12)          -179.3971         estimate D2E/DX2                !
 ! D10   D(2,1,7,13)             0.6472         estimate D2E/DX2                !
 ! D11   D(6,1,7,12)             0.6469         estimate D2E/DX2                !
 ! D12   D(6,1,7,13)          -179.3088         estimate D2E/DX2                !
 ! D13   D(1,2,3,4)              0.062          estimate D2E/DX2                !
 ! D14   D(1,2,3,15)          -179.981          estimate D2E/DX2                !
 ! D15   D(14,2,3,4)          -179.9466         estimate D2E/DX2                !
 ! D16   D(14,2,3,15)            0.0103         estimate D2E/DX2                !
 ! D17   D(2,3,4,5)             -0.057          estimate D2E/DX2                !
 ! D18   D(2,3,4,8)            179.8945         estimate D2E/DX2                !
 ! D19   D(15,3,4,5)           179.9853         estimate D2E/DX2                !
 ! D20   D(15,3,4,8)            -0.0632         estimate D2E/DX2                !
 ! D21   D(3,4,5,6)             -0.0125         estimate D2E/DX2                !
 ! D22   D(3,4,5,11)           179.9306         estimate D2E/DX2                !
 ! D23   D(8,4,5,6)           -179.9656         estimate D2E/DX2                !
 ! D24   D(8,4,5,11)            -0.0225         estimate D2E/DX2                !
 ! D25   D(3,4,8,9)           -179.8986         estimate D2E/DX2                !
 ! D26   D(3,4,8,17)             0.0702         estimate D2E/DX2                !
 ! D27   D(5,4,8,9)              0.0529         estimate D2E/DX2                !
 ! D28   D(5,4,8,17)          -179.9782         estimate D2E/DX2                !
 ! D29   D(4,5,6,1)              0.0774         estimate D2E/DX2                !
 ! D30   D(4,5,6,16)          -179.9883         estimate D2E/DX2                !
 ! D31   D(11,5,6,1)          -179.8639         estimate D2E/DX2                !
 ! D32   D(11,5,6,16)            0.0704         estimate D2E/DX2                !
 ! D33   D(4,5,11,10)           -0.0255         estimate D2E/DX2                !
 ! D34   D(4,5,11,20)         -179.9941         estimate D2E/DX2                !
 ! D35   D(6,5,11,10)          179.9158         estimate D2E/DX2                !
 ! D36   D(6,5,11,20)           -0.0528         estimate D2E/DX2                !
 ! D37   D(1,7,13,21)          179.9522         estimate D2E/DX2                !
 ! D38   D(12,7,13,21)          -0.005          estimate D2E/DX2                !
 ! D39   D(4,8,9,10)            -0.0356         estimate D2E/DX2                !
 ! D40   D(4,8,9,18)           179.9598         estimate D2E/DX2                !
 ! D41   D(17,8,9,10)          179.9961         estimate D2E/DX2                !
 ! D42   D(17,8,9,18)           -0.0085         estimate D2E/DX2                !
 ! D43   D(8,9,10,11)           -0.0134         estimate D2E/DX2                !
 ! D44   D(8,9,10,19)          179.9855         estimate D2E/DX2                !
 ! D45   D(18,9,10,11)         179.9911         estimate D2E/DX2                !
 ! D46   D(18,9,10,19)          -0.0099         estimate D2E/DX2                !
 ! D47   D(9,10,11,5)            0.0439         estimate D2E/DX2                !
 ! D48   D(9,10,11,20)        -179.9882         estimate D2E/DX2                !
 ! D49   D(19,10,11,5)        -179.955          estimate D2E/DX2                !
 ! D50   D(19,10,11,20)          0.0129         estimate D2E/DX2                !
 --------------------------------------------------------------------------------
 Trust Radius=3.00D-01 FncErr=1.00D-07 GrdErr=1.00D-06 EigMax=2.50D+02 EigMin=1.00D-04
 Number of steps in this run=    116 maximum allowed number of steps=    126.
 GradGradGradGradGradGradGradGradGradGradGradGradGradGradGradGradGradGrad

                          Input orientation:                          
 ---------------------------------------------------------------------
 Center     Atomic      Atomic             Coordinates (Angstroms)
 Number     Number       Type             X           Y           Z
 ---------------------------------------------------------------------
      1          6           0       -0.461069    0.839964    1.520397
      2          6           0       -0.839615   -0.497610    1.765911
      3          6           0       -0.681777   -1.440875    0.793260
      4          6           0       -0.140708   -1.104770   -0.467443
      5          6           0        0.241237    0.241401   -0.716854
      6          6           0        0.067662    1.196137    0.300549
      7          6           0       -0.618417    1.883980    2.553259
      8          6           0        0.034286   -2.061721   -1.487770
      9          6           0        0.563012   -1.704344   -2.696994
     10          6           0        0.940727   -0.374428   -2.943301
     11          6           0        0.783475    0.577895   -1.976103
     12          8           0       -0.325826    3.045788    2.407237
     13          8           0       -1.129363    1.424430    3.708538
     14          1           0       -1.251975   -0.754672    2.728711
     15          1           0       -0.969790   -2.466559    0.974511
     16          1           0        0.351466    2.224622    0.130948
     17          1           0       -0.257264   -3.084452   -1.295651
     18          1           0        0.694496   -2.443684   -3.473441
     19          1           0        1.356716   -0.112197   -3.904885
     20          1           0        1.071369    1.603107   -2.157760
     21          1           0       -1.206241    2.154988    4.341382
 ---------------------------------------------------------------------
                    Distance matrix (angstroms):
                    1          2          3          4          5
     1  C    0.000000
     2  C    1.411623   0.000000
     3  C    2.404093   1.364079   0.000000
     4  C    2.799309   2.417641   1.412478   0.000000
     5  C    2.420083   2.806867   2.441813   1.421360   0.000000
     6  C    1.376388   2.416447   2.785364   2.434626   1.405971
     7  C    1.477001   2.518098   3.762482   4.276152   3.759083
     8  C    4.208826   3.714376   2.470079   1.409768   2.437522
     9  C    5.030768   4.831262   3.714941   2.413629   2.794713
    10  C    4.833672   5.036018   4.210905   2.798710   2.413628
    11  C    3.720629   4.218270   3.727166   2.441625   1.411722
    12  O    2.381268   3.637437   4.781398   5.052246   4.236282
    13  O    2.361394   2.748089   4.112074   4.981277   4.781443
    14  H    2.151376   1.078473   2.131190   3.401894   3.885069
    15  H    3.389672   2.126033   1.080662   2.149669   3.414725
    16  H    2.123219   3.391508   3.865503   3.418357   2.159649
    17  H    4.834532   4.050191   2.691673   2.149105   3.412449
    18  H    6.087371   5.795818   4.593962   3.395037   3.874777
    19  H    5.800399   6.093467   5.290879   3.878593   3.396008
    20  H    4.057042   4.843559   4.587795   3.414513   2.149319
    21  H    3.200394   3.715338   5.078825   5.906452   5.598460
                    6          7          8          9         10
     6  C    0.000000
     7  C    2.453270   0.000000
     8  C    3.716562   5.685463   0.000000
     9  C    4.200407   6.468152   1.367294   0.000000
    10  C    3.708299   6.143575   2.405653   1.404284   0.000000
    11  C    2.465310   4.917955   2.786993   2.403519   1.366426
    12  O    2.830932   1.206951   6.433305   7.029008   6.475361
    13  O    3.619306   1.344218   6.364664   7.326951   7.195008
    14  H    3.382760   2.719313   4.597994   5.799511   6.092967
    15  H    3.865988   4.641453   2.689775   4.050976   4.834909
    16  H    1.080320   2.631406   4.592776   4.845491   4.068575
    17  H    4.580051   6.295224   1.080689   2.131035   3.390304
    18  H    5.280550   7.534820   2.127125   1.080176   2.150232
    19  H    4.589016   7.042265   3.375191   2.150325   1.080025
    20  H    2.686323   5.012780   3.867220   3.389459   2.131851
    21  H    4.344025   1.901674   7.300586   8.219697   8.004625
                   11         12         13         14         15
    11  C    0.000000
    12  O    5.151186   0.000000
    13  O    6.057286   2.228869   0.000000
    14  H    5.296609   3.924869   2.392401   0.000000
    15  H    4.587893   5.731785   4.758168   2.467265   0.000000
    16  H    2.708876   2.512872   3.953772   4.265629   4.946160
    17  H    3.867678   7.162117   6.792090   4.755293   2.458276
    18  H    3.373407   8.109114   8.358803   6.716263   4.749173
    19  H    2.127212   7.255805   8.155123   7.156999   5.896114
    20  H    1.080251   4.987251   6.268062   5.902088   5.526267
    21  H    6.808583   2.304251   0.969595   3.326999   5.722798
                   16         17         18         19         20
    16  H    0.000000
    17  H    5.531004   0.000000
    18  H    5.907823   2.461544   0.000000
    19  H    4.770660   4.271690   2.461810   0.000000
    20  H    2.478452   4.947899   4.271951   2.464982   0.000000
    21  H    4.489883   7.754252   9.264557   8.928034   6.908756
                   21
    21  H    0.000000
 Stoichiometry    C11H8O2
 Framework group  C1[X(C11H8O2)]
 Deg. of freedom    57
 Full point group                 C1      NOp   1
 Largest Abelian subgroup         C1      NOp   1
 Largest concise Abelian subgroup C1      NOp   1
                         Standard orientation:                         
 ---------------------------------------------------------------------
 Center     Atomic      Atomic             Coordinates (Angstroms)
 Number     Number       Type             X           Y           Z
 ---------------------------------------------------------------------
      1          6           0        1.421125    0.057724   -0.002345
      2          6           0        1.063827    1.423380   -0.003790
      3          6           0       -0.251588    1.784482   -0.004585
      4          6           0       -1.274951    0.810922   -0.002676
      5          6           0       -0.917530   -0.564764   -0.001122
      6          6           0        0.444779   -0.912427   -0.001806
      7          6           0        2.836256   -0.365279   -0.000394
      8          6           0       -2.641115    1.158828   -0.001248
      9          6           0       -3.607851    0.191927    0.002668
     10          6           0       -3.254750   -1.167238    0.004585
     11          6           0       -1.939717   -1.538459    0.002281
     12          8           0        3.211389   -1.512416   -0.009528
     13          8           0        3.704048    0.661199    0.013746
     14          1           0        1.845006    2.166928   -0.004388
     15          1           0       -0.532011    2.828125   -0.006001
     16          1           0        0.737346   -1.952377   -0.000842
     17          1           0       -2.910130    2.205498   -0.002794
     18          1           0       -4.652487    0.466723    0.004393
     19          1           0       -4.033167   -1.915911    0.007918
     20          1           0       -1.659840   -2.581823    0.003541
     21          1           0        4.610871    0.317999    0.015032
 ---------------------------------------------------------------------
 Rotational constants (GHZ):           2.2663828           0.4865573           0.4005664
 Standard basis: Aug-CC-pVTZ (5D, 7F)
 There are   915 symmetry adapted cartesian basis functions of A   symmetry.
 There are   782 symmetry adapted basis functions of A   symmetry.
   782 basis functions,  1152 primitive gaussians,   915 cartesian basis functions
    45 alpha electrons       45 beta electrons
       nuclear repulsion energy       709.6288654255 Hartrees.
 NAtoms=   21 NActive=   21 NUniq=   21 SFac= 1.00D+00 NAtFMM=   60 NAOKFM=F Big=F
 Integral buffers will be    131072 words long.
 Raffenetti 2 integral format.
 Two-electron integral symmetry is turned on.
 One-electron integrals computed using PRISM.
 NBasis=   782 RedAO= T EigKep=  1.13D-06  NBF=   782
 NBsUse=   775 1.00D-06 EigRej=  9.02D-07 NBFU=   775
 ExpMin= 2.53D-02 ExpMax= 1.53D+04 ExpMxC= 5.22D+02 IAcc=3 IRadAn=         5 AccDes= 0.00D+00
 Harris functional with IExCor= 1009 and IRadAn=       5 diagonalized for initial guess.
 HarFok:  IExCor= 1009 AccDes= 0.00D+00 IRadAn=         5 IDoV= 1 UseB2=F ITyADJ=14
 ICtDFT=  3500011 ScaDFX=  1.000000  1.000000  1.000000  1.000000
 FoFCou: FMM=F IPFlag=           0 FMFlag=      100000 FMFlg1=           0
         NFxFlg=           0 DoJE=T BraDBF=F KetDBF=T FulRan=T
         wScrn=  0.000000 ICntrl=       500 IOpCl=  0 I1Cent=   200000004 NGrid=           0
         NMat0=    1 NMatS0=      1 NMatT0=    0 NMatD0=    1 NMtDS0=    0 NMtDT0=    0
 Petite list used in FoFCou.
 Requested convergence on RMS density matrix=1.00D-08 within 128 cycles.
 Requested convergence on MAX density matrix=1.00D-06.
 Requested convergence on             energy=1.00D-06.
 No special actions if energy rises.
 SCF Done:  E(RM062X) =  -574.452650741     A.U. after   13 cycles
            NFock= 13  Conv=0.92D-08     -V/T= 2.0051

 **********************************************************************

            Population analysis using the SCF Density.

 **********************************************************************

 Orbital symmetries:
       Occupied  (A) (A) (A) (A) (A) (A) (A) (A) (A) (A) (A) (A)
                 (A) (A) (A) (A) (A) (A) (A) (A) (A) (A) (A) (A)
                 (A) (A) (A) (A) (A) (A) (A) (A) (A) (A) (A) (A)
                 (A) (A) (A) (A) (A) (A) (A) (A) (A)
       Virtual   (A) (A) (A) (A) (A) (A) (A) (A) (A) (A) (A) (A)
                 (A) (A) (A) (A) (A) (A) (A) (A) (A) (A) (A) (A)
                 (A) (A) (A) (A) (A) (A) (A) (A) (A) (A) (A) (A)
                 (A) (A) (A) (A) (A) (A) (A) (A) (A) (A) (A) (A)
                 (A) (A) (A) (A) (A) (A) (A) (A) (A) (A) (A) (A)
                 (A) (A) (A) (A) (A) (A) (A) (A) (A) (A) (A) (A)
                 (A) (A) (A) (A) (A) (A) (A) (A) (A) (A) (A) (A)
                 (A) (A) (A) (A) (A) (A) (A) (A) (A) (A) (A) (A)
                 (A) (A) (A) (A) (A) (A) (A) (A) (A) (A) (A) (A)
                 (A) (A) (A) (A) (A) (A) (A) (A) (A) (A) (A) (A)
                 (A) (A) (A) (A) (A) (A) (A) (A) (A) (A) (A) (A)
                 (A) (A) (A) (A) (A) (A) (A) (A) (A) (A) (A) (A)
                 (A) (A) (A) (A) (A) (A) (A) (A) (A) (A) (A) (A)
                 (A) (A) (A) (A) (A) (A) (A) (A) (A) (A) (A) (A)
                 (A) (A) (A) (A) (A) (A) (A) (A) (A) (A) (A) (A)
                 (A) (A) (A) (A) (A) (A) (A) (A) (A) (A) (A) (A)
                 (A) (A) (A) (A) (A) (A) (A) (A) (A) (A) (A) (A)
                 (A) (A) (A) (A) (A) (A) (A) (A) (A) (A) (A) (A)
                 (A) (A) (A) (A) (A) (A) (A) (A) (A) (A) (A) (A)
                 (A) (A) (A) (A) (A) (A) (A) (A) (A) (A) (A) (A)
                 (A) (A) (A) (A) (A) (A) (A) (A) (A) (A) (A) (A)
                 (A) (A) (A) (A) (A) (A) (A) (A) (A) (A) (A) (A)
                 (A) (A) (A) (A) (A) (A) (A) (A) (A) (A) (A) (A)
                 (A) (A) (A) (A) (A) (A) (A) (A) (A) (A) (A) (A)
                 (A) (A) (A) (A) (A) (A) (A) (A) (A) (A) (A) (A)
                 (A) (A) (A) (A) (A) (A) (A) (A) (A) (A) (A) (A)
                 (A) (A) (A) (A) (A) (A) (A) (A) (A) (A) (A) (A)
                 (A) (A) (A) (A) (A) (A) (A) (A) (A) (A) (A) (A)
                 (A) (A) (A) (A) (A) (A) (A) (A) (A) (A) (A) (A)
                 (A) (A) (A) (A) (A) (A) (A) (A) (A) (A) (A) (A)
                 (A) (A) (A) (A) (A) (A) (A) (A) (A) (A) (A) (A)
                 (A) (A) (A) (A) (A) (A) (A) (A) (A) (A) (A) (A)
                 (A) (A) (A) (A) (A) (A) (A) (A) (A) (A) (A) (A)
                 (A) (A) (A) (A) (A) (A) (A) (A) (A) (A) (A) (A)
                 (A) (A) (A) (A) (A) (A) (A) (A) (A) (A) (A) (A)
                 (A) (A) (A) (A) (A) (A) (A) (A) (A) (A) (A) (A)
                 (A) (A) (A) (A) (A) (A) (A) (A) (A) (A) (A) (A)
                 (A) (A) (A) (A) (A) (A) (A) (A) (A) (A) (A) (A)
                 (A) (A) (A) (A) (A) (A) (A) (A) (A) (A) (A) (A)
                 (A) (A) (A) (A) (A) (A) (A) (A) (A) (A) (A) (A)
                 (A) (A) (A) (A) (A) (A) (A) (A) (A) (A) (A) (A)
                 (A) (A) (A) (A) (A) (A) (A) (A) (A) (A) (A) (A)
                 (A) (A) (A) (A) (A) (A) (A) (A) (A) (A) (A) (A)
                 (A) (A) (A) (A) (A) (A) (A) (A) (A) (A) (A) (A)
                 (A) (A) (A) (A) (A) (A) (A) (A) (A) (A) (A) (A)
                 (A) (A) (A) (A) (A) (A) (A) (A) (A) (A) (A) (A)
                 (A) (A) (A) (A) (A) (A) (A) (A) (A) (A) (A) (A)
                 (A) (A) (A) (A) (A) (A) (A) (A) (A) (A) (A) (A)
                 (A) (A) (A) (A) (A) (A) (A) (A) (A) (A) (A) (A)
                 (A) (A) (A) (A) (A) (A) (A) (A) (A) (A) (A) (A)
                 (A) (A) (A) (A) (A) (A) (A) (A) (A) (A) (A) (A)
                 (A) (A) (A) (A) (A) (A) (A) (A) (A) (A) (A) (A)
                 (A) (A) (A) (A) (A) (A) (A) (A) (A) (A) (A) (A)
                 (A) (A) (A) (A) (A) (A) (A) (A) (A) (A) (A) (A)
                 (A) (A) (A) (A) (A) (A) (A) (A) (A) (A) (A) (A)
                 (A) (A) (A) (A) (A) (A) (A) (A) (A) (A) (A) (A)
                 (A) (A) (A) (A) (A) (A) (A) (A) (A) (A) (A) (A)
                 (A) (A) (A) (A) (A) (A) (A) (A) (A) (A) (A) (A)
                 (A) (A) (A) (A) (A) (A) (A) (A) (A) (A) (A) (A)
                 (A) (A) (A) (A) (A) (A) (A) (A) (A) (A) (A) (A)
                 (A) (A) (A) (A) (A) (A) (A) (A) (A) (A)
 The electronic state is 1-A.
 Alpha  occ. eigenvalues --  -19.67751 -19.61748 -10.68260 -10.56571 -10.56535
 Alpha  occ. eigenvalues --  -10.56339 -10.56158 -10.55645 -10.55567 -10.55546
 Alpha  occ. eigenvalues --  -10.55459 -10.55410 -10.55308  -1.24318  -1.14411
 Alpha  occ. eigenvalues --   -1.00150  -0.94709  -0.89143  -0.86585  -0.83321
 Alpha  occ. eigenvalues --   -0.76896  -0.71894  -0.69957  -0.68809  -0.62134
 Alpha  occ. eigenvalues --   -0.60349  -0.59163  -0.56991  -0.54531  -0.54329
 Alpha  occ. eigenvalues --   -0.53021  -0.50609  -0.49808  -0.48873  -0.48346
 Alpha  occ. eigenvalues --   -0.48128  -0.44478  -0.41608  -0.41494  -0.40073
 Alpha  occ. eigenvalues --   -0.40071  -0.36361  -0.36132  -0.31351  -0.28177
 Alpha virt. eigenvalues --   -0.04202  -0.01276  -0.00765  -0.00234   0.00310
 Alpha virt. eigenvalues --    0.01199   0.01999   0.02197   0.02972   0.03843
 Alpha virt. eigenvalues --    0.03961   0.04012   0.04297   0.04943   0.05360
 Alpha virt. eigenvalues --    0.06382   0.06729   0.07175   0.07461   0.07561
 Alpha virt. eigenvalues --    0.08014   0.08114   0.08696   0.08732   0.08798
 Alpha virt. eigenvalues --    0.09402   0.09728   0.10371   0.10645   0.10787
 Alpha virt. eigenvalues --    0.10987   0.11448   0.11785   0.12058   0.12642
 Alpha virt. eigenvalues --    0.13177   0.13384   0.14291   0.14732   0.14796
 Alpha virt. eigenvalues --    0.15567   0.15764   0.16208   0.16325   0.16646
 Alpha virt. eigenvalues --    0.17234   0.17436   0.18475   0.19045   0.19502
 Alpha virt. eigenvalues --    0.19683   0.20354   0.20591   0.21044   0.21227
 Alpha virt. eigenvalues --    0.21726   0.21943   0.21988   0.22307   0.22822
 Alpha virt. eigenvalues --    0.23000   0.23843   0.24116   0.24514   0.25010
 Alpha virt. eigenvalues --    0.25491   0.25821   0.26589   0.26855   0.26876
 Alpha virt. eigenvalues --    0.27101   0.27680   0.27738   0.28402   0.28706
 Alpha virt. eigenvalues --    0.29317   0.29889   0.29957   0.30550   0.31118
 Alpha virt. eigenvalues --    0.31782   0.32163   0.32501   0.33362   0.33448
 Alpha virt. eigenvalues --    0.33772   0.34464   0.34721   0.35012   0.35336
 Alpha virt. eigenvalues --    0.35479   0.35720   0.36073   0.36177   0.36346
 Alpha virt. eigenvalues --    0.36445   0.36746   0.37724   0.37798   0.38295
 Alpha virt. eigenvalues --    0.38916   0.39007   0.39689   0.39793   0.40429
 Alpha virt. eigenvalues --    0.40724   0.40739   0.41099   0.41276   0.41729
 Alpha virt. eigenvalues --    0.42221   0.42507   0.42896   0.43199   0.44451
 Alpha virt. eigenvalues --    0.44744   0.44774   0.44954   0.45473   0.46052
 Alpha virt. eigenvalues --    0.46786   0.47307   0.47317   0.47920   0.47966
 Alpha virt. eigenvalues --    0.48335   0.48855   0.48934   0.50100   0.50388
 Alpha virt. eigenvalues --    0.50738   0.51609   0.52739   0.53420   0.54913
 Alpha virt. eigenvalues --    0.55425   0.55827   0.56582   0.56970   0.57075
 Alpha virt. eigenvalues --    0.57375   0.58487   0.59147   0.59260   0.59821
 Alpha virt. eigenvalues --    0.59964   0.60814   0.60894   0.61766   0.61932
 Alpha virt. eigenvalues --    0.62237   0.63499   0.64965   0.65212   0.65677
 Alpha virt. eigenvalues --    0.66128   0.66348   0.66693   0.67607   0.67802
 Alpha virt. eigenvalues --    0.69590   0.69907   0.70521   0.70575   0.71257
 Alpha virt. eigenvalues --    0.72092   0.72254   0.73462   0.73583   0.73642
 Alpha virt. eigenvalues --    0.73744   0.74499   0.74817   0.75421   0.75723
 Alpha virt. eigenvalues --    0.75883   0.75938   0.76619   0.76856   0.77244
 Alpha virt. eigenvalues --    0.77961   0.78642   0.78735   0.79334   0.79723
 Alpha virt. eigenvalues --    0.79858   0.80113   0.81094   0.81330   0.81752
 Alpha virt. eigenvalues --    0.81937   0.83405   0.83658   0.83771   0.84537
 Alpha virt. eigenvalues --    0.85181   0.85341   0.85845   0.86545   0.87259
 Alpha virt. eigenvalues --    0.87615   0.87932   0.88503   0.88764   0.88906
 Alpha virt. eigenvalues --    0.89146   0.89915   0.90099   0.91358   0.91606
 Alpha virt. eigenvalues --    0.91669   0.92767   0.92945   0.93809   0.93949
 Alpha virt. eigenvalues --    0.94745   0.95108   0.95143   0.96171   0.96353
 Alpha virt. eigenvalues --    0.96921   0.97355   0.98279   0.98377   0.98621
 Alpha virt. eigenvalues --    0.99480   0.99819   1.00314   1.00975   1.01180
 Alpha virt. eigenvalues --    1.01371   1.02215   1.02800   1.02900   1.03340
 Alpha virt. eigenvalues --    1.03779   1.04398   1.04754   1.05088   1.05366
 Alpha virt. eigenvalues --    1.05799   1.06222   1.06563   1.07399   1.07516
 Alpha virt. eigenvalues --    1.08499   1.09277   1.10003   1.10433   1.10919
 Alpha virt. eigenvalues --    1.10950   1.12204   1.12289   1.13261   1.13397
 Alpha virt. eigenvalues --    1.14202   1.14745   1.15179   1.16495   1.16585
 Alpha virt. eigenvalues --    1.17607   1.18577   1.19139   1.19936   1.21840
 Alpha virt. eigenvalues --    1.21881   1.22183   1.22422   1.23334   1.23883
 Alpha virt. eigenvalues --    1.25382   1.25720   1.25841   1.26392   1.26950
 Alpha virt. eigenvalues --    1.27126   1.28047   1.29291   1.29812   1.29934
 Alpha virt. eigenvalues --    1.31557   1.33415   1.33726   1.34017   1.35298
 Alpha virt. eigenvalues --    1.35459   1.35706   1.37523   1.37899   1.38742
 Alpha virt. eigenvalues --    1.38876   1.39110   1.40497   1.41333   1.42344
 Alpha virt. eigenvalues --    1.42716   1.43663   1.43870   1.45717   1.46863
 Alpha virt. eigenvalues --    1.47826   1.48165   1.49077   1.49587   1.50055
 Alpha virt. eigenvalues --    1.51113   1.52008   1.52996   1.53205   1.53476
 Alpha virt. eigenvalues --    1.54011   1.55405   1.55707   1.56253   1.57968
 Alpha virt. eigenvalues --    1.59509   1.60387   1.60945   1.61561   1.62870
 Alpha virt. eigenvalues --    1.64138   1.64624   1.65191   1.65324   1.66796
 Alpha virt. eigenvalues --    1.67350   1.68103   1.68468   1.69334   1.70053
 Alpha virt. eigenvalues --    1.71601   1.71692   1.72330   1.72527   1.72605
 Alpha virt. eigenvalues --    1.74339   1.74659   1.75600   1.75862   1.76055
 Alpha virt. eigenvalues --    1.76322   1.77825   1.78797   1.79309   1.79401
 Alpha virt. eigenvalues --    1.81773   1.82959   1.83023   1.83392   1.84961
 Alpha virt. eigenvalues --    1.85650   1.86320   1.87176   1.87257   1.88699
 Alpha virt. eigenvalues --    1.89864   1.90476   1.90766   1.91817   1.92021
 Alpha virt. eigenvalues --    1.93134   1.93827   1.95522   1.95707   1.96575
 Alpha virt. eigenvalues --    1.97149   1.97839   1.98125   1.99788   2.00321
 Alpha virt. eigenvalues --    2.01367   2.02425   2.02623   2.03291   2.03406
 Alpha virt. eigenvalues --    2.04445   2.05348   2.05679   2.06526   2.08204
 Alpha virt. eigenvalues --    2.08354   2.09472   2.13314   2.13727   2.13944
 Alpha virt. eigenvalues --    2.14382   2.15199   2.16592   2.16807   2.17260
 Alpha virt. eigenvalues --    2.18776   2.19972   2.21402   2.21770   2.22270
 Alpha virt. eigenvalues --    2.25315   2.26032   2.26376   2.28374   2.30076
 Alpha virt. eigenvalues --    2.30603   2.32604   2.33143   2.33698   2.36624
 Alpha virt. eigenvalues --    2.36871   2.37886   2.39796   2.40017   2.40299
 Alpha virt. eigenvalues --    2.41139   2.41867   2.42264   2.43563   2.45424
 Alpha virt. eigenvalues --    2.48218   2.48753   2.49989   2.50131   2.51563
 Alpha virt. eigenvalues --    2.52367   2.53913   2.55473   2.55923   2.56052
 Alpha virt. eigenvalues --    2.58632   2.59102   2.60121   2.61045   2.64620
 Alpha virt. eigenvalues --    2.67719   2.68524   2.70611   2.70825   2.72652
 Alpha virt. eigenvalues --    2.74698   2.74991   2.78412   2.79902   2.81562
 Alpha virt. eigenvalues --    2.84326   2.87463   2.89313   2.89455   2.91473
 Alpha virt. eigenvalues --    2.91909   2.93842   2.94249   2.94625   2.94882
 Alpha virt. eigenvalues --    2.96841   2.99115   2.99171   3.00115   3.01668
 Alpha virt. eigenvalues --    3.02384   3.03096   3.05210   3.05597   3.07033
 Alpha virt. eigenvalues --    3.07298   3.09772   3.10135   3.12448   3.12504
 Alpha virt. eigenvalues --    3.13822   3.15032   3.15761   3.16533   3.16630
 Alpha virt. eigenvalues --    3.18048   3.20110   3.20390   3.21858   3.21909
 Alpha virt. eigenvalues --    3.22094   3.23514   3.24270   3.25318   3.26240
 Alpha virt. eigenvalues --    3.26681   3.27004   3.27845   3.28153   3.28569
 Alpha virt. eigenvalues --    3.28612   3.29552   3.29788   3.31338   3.32884
 Alpha virt. eigenvalues --    3.33008   3.35158   3.35570   3.36481   3.38370
 Alpha virt. eigenvalues --    3.39080   3.40166   3.41452   3.43759   3.44013
 Alpha virt. eigenvalues --    3.45458   3.45712   3.46286   3.47826   3.48113
 Alpha virt. eigenvalues --    3.49688   3.50086   3.51684   3.53967   3.54004
 Alpha virt. eigenvalues --    3.55563   3.57651   3.58258   3.58392   3.60085
 Alpha virt. eigenvalues --    3.60336   3.61436   3.62413   3.63761   3.63861
 Alpha virt. eigenvalues --    3.64704   3.64929   3.65310   3.65921   3.66280
 Alpha virt. eigenvalues --    3.66617   3.68244   3.68572   3.69003   3.70708
 Alpha virt. eigenvalues --    3.72579   3.73422   3.73555   3.74677   3.75027
 Alpha virt. eigenvalues --    3.76420   3.76744   3.77866   3.78350   3.78872
 Alpha virt. eigenvalues --    3.80255   3.81630   3.81754   3.84915   3.85415
 Alpha virt. eigenvalues --    3.85877   3.87077   3.87938   3.89161   3.89428
 Alpha virt. eigenvalues --    3.90263   3.93714   3.93748   3.95264   3.95622
 Alpha virt. eigenvalues --    3.96172   3.96531   3.97084   3.97392   3.97960
 Alpha virt. eigenvalues --    3.99532   4.00334   4.01801   4.02311   4.03054
 Alpha virt. eigenvalues --    4.03146   4.03816   4.04005   4.05869   4.07098
 Alpha virt. eigenvalues --    4.08006   4.08461   4.11014   4.11232   4.11316
 Alpha virt. eigenvalues --    4.12651   4.13795   4.14225   4.15457   4.18318
 Alpha virt. eigenvalues --    4.18930   4.19628   4.20175   4.22294   4.23916
 Alpha virt. eigenvalues --    4.24537   4.25695   4.26923   4.28960   4.29276
 Alpha virt. eigenvalues --    4.29757   4.30677   4.32260   4.32929   4.33539
 Alpha virt. eigenvalues --    4.35327   4.35900   4.38507   4.39585   4.41263
 Alpha virt. eigenvalues --    4.41897   4.42349   4.43484   4.44080   4.47382
 Alpha virt. eigenvalues --    4.47516   4.50649   4.52321   4.55477   4.55683
 Alpha virt. eigenvalues --    4.56751   4.57573   4.58811   4.60488   4.60715
 Alpha virt. eigenvalues --    4.62442   4.63253   4.65813   4.66197   4.67849
 Alpha virt. eigenvalues --    4.68933   4.70102   4.70669   4.72892   4.74621
 Alpha virt. eigenvalues --    4.76199   4.76416   4.76985   4.77675   4.78815
 Alpha virt. eigenvalues --    4.79471   4.79678   4.82184   4.82375   4.84285
 Alpha virt. eigenvalues --    4.84955   4.87858   4.90934   4.91578   4.92135
 Alpha virt. eigenvalues --    4.93417   4.96445   4.98830   4.98915   4.99493
 Alpha virt. eigenvalues --    5.04227   5.04409   5.04969   5.07034   5.08068
 Alpha virt. eigenvalues --    5.09255   5.14034   5.16212   5.22950   5.24625
 Alpha virt. eigenvalues --    5.27162   5.27410   5.28797   5.29167   5.34066
 Alpha virt. eigenvalues --    5.37162   5.39069   5.39498   5.42123   5.48895
 Alpha virt. eigenvalues --    5.52345   5.54101   5.60128   5.65138   5.71211
 Alpha virt. eigenvalues --    5.73988   5.75636   5.81465   5.83453   5.87483
 Alpha virt. eigenvalues --    5.89663   5.97074   6.02555   6.03951   6.05694
 Alpha virt. eigenvalues --    6.09816   6.13966   6.17937   6.22264   6.22572
 Alpha virt. eigenvalues --    6.24777   6.29458   6.31492   6.37105   6.37897
 Alpha virt. eigenvalues --    6.40159   6.41172   6.44166   6.47105   6.52044
 Alpha virt. eigenvalues --    6.56223   6.59819   6.61873   6.66327   6.71287
 Alpha virt. eigenvalues --    6.76396   6.79541   6.82638   6.84557   6.87168
 Alpha virt. eigenvalues --    6.90508   6.96780   7.06153   7.09577   7.13370
 Alpha virt. eigenvalues --    7.16714   7.30328   7.36342   7.48800   7.60598
 Alpha virt. eigenvalues --    7.83417   8.06023  15.03970  15.29600  15.98234
 Alpha virt. eigenvalues --   16.33736  16.83505  17.71482  18.59078  18.67025
 Alpha virt. eigenvalues --   19.31162  19.63631  19.70699  20.11801  20.65319
          Condensed to atoms (all electrons):
               1          2          3          4          5          6
     1  C    6.480734   0.080530  -0.187546  -0.304837   0.002266  -0.383857
     2  C    0.080530   7.536235  -0.351642  -0.013626  -0.337982  -0.231867
     3  C   -0.187546  -0.351642   9.055480  -0.378795   0.145346  -0.592796
     4  C   -0.304837  -0.013626  -0.378795   7.230270  -0.646968   0.022122
     5  C    0.002266  -0.337982   0.145346  -0.646968   7.651270  -0.363672
     6  C   -0.383857  -0.231867  -0.592796   0.022122  -0.363672   9.071198
     7  C   -0.384656  -0.558748   0.143298   0.075113  -0.084709  -0.282845
     8  C   -0.116777   0.313248  -1.225592  -0.282895  -0.495829   0.396022
     9  C    0.009215   0.004461   0.109150   0.024181  -0.372601  -0.059664
    10  C   -0.007393  -0.017016   0.003933  -0.285880  -0.168138   0.098433
    11  C    0.083275   0.059617   0.337278  -0.566767  -0.221199  -0.913441
    12  O    0.066552   0.028419  -0.015362  -0.036990   0.027930  -0.021067
    13  O   -0.141657   0.007611   0.015978  -0.003901  -0.021661   0.045886
    14  H   -0.307544   0.164770  -0.603957   0.079166  -0.075518   0.046718
    15  H   -0.004690  -0.504876   0.428996  -0.235970   0.062943   0.048787
    16  H   -0.291891  -0.024666   0.128173  -0.053907  -0.362365   0.247537
    17  H   -0.002007   0.021188  -0.128712  -0.196816   0.058067   0.010174
    18  H   -0.001658  -0.005559   0.034931   0.122312  -0.057516  -0.003712
    19  H   -0.000732   0.002174  -0.017068  -0.025043   0.080085   0.011978
    20  H    0.017245   0.017845  -0.008181   0.008065  -0.123172  -0.138583
    21  H   -0.007010  -0.005049   0.000635   0.001657  -0.002494  -0.018610
               7          8          9         10         11         12
     1  C   -0.384656  -0.116777   0.009215  -0.007393   0.083275   0.066552
     2  C   -0.558748   0.313248   0.004461  -0.017016   0.059617   0.028419
     3  C    0.143298  -1.225592   0.109150   0.003933   0.337278  -0.015362
     4  C    0.075113  -0.282895   0.024181  -0.285880  -0.566767  -0.036990
     5  C   -0.084709  -0.495829  -0.372601  -0.168138  -0.221199   0.027930
     6  C   -0.282845   0.396022  -0.059664   0.098433  -0.913441  -0.021067
     7  C    6.567451   0.001137   0.001921  -0.000362  -0.100242  -0.230765
     8  C    0.001137   8.159571   0.110479  -0.119500  -0.446991  -0.001948
     9  C    0.001921   0.110479   6.512412  -0.034650  -0.104290  -0.000627
    10  C   -0.000362  -0.119500  -0.034650   6.672272   0.279007   0.002964
    11  C   -0.100242  -0.446991  -0.104290   0.279007   8.017177   0.026198
    12  O   -0.230765  -0.001948  -0.000627   0.002964   0.026198   9.333128
    13  O    0.105777   0.005824   0.000253  -0.000224   0.003199  -0.109687
    14  H    0.195225   0.026207   0.003664  -0.000509  -0.025083   0.002415
    15  H   -0.014184   0.058017  -0.006864  -0.008157   0.041213  -0.001338
    16  H    0.072539  -0.019295  -0.006701   0.014444  -0.025535  -0.018179
    17  H    0.000042   0.551951  -0.331293   0.028396   0.004903   0.000083
    18  H   -0.000319  -0.301166   0.502510  -0.233964   0.030996  -0.000008
    19  H    0.001538   0.042297  -0.242235   0.430270  -0.260166  -0.000048
    20  H   -0.012960   0.020239   0.026677  -0.337622   0.525817   0.002229
    21  H    0.098706  -0.000562   0.000060  -0.000120   0.000008  -0.115652
              13         14         15         16         17         18
     1  C   -0.141657  -0.307544  -0.004690  -0.291891  -0.002007  -0.001658
     2  C    0.007611   0.164770  -0.504876  -0.024666   0.021188  -0.005559
     3  C    0.015978  -0.603957   0.428996   0.128173  -0.128712   0.034931
     4  C   -0.003901   0.079166  -0.235970  -0.053907  -0.196816   0.122312
     5  C   -0.021661  -0.075518   0.062943  -0.362365   0.058067  -0.057516
     6  C    0.045886   0.046718   0.048787   0.247537   0.010174  -0.003712
     7  C    0.105777   0.195225  -0.014184   0.072539   0.000042  -0.000319
     8  C    0.005824   0.026207   0.058017  -0.019295   0.551951  -0.301166
     9  C    0.000253   0.003664  -0.006864  -0.006701  -0.331293   0.502510
    10  C   -0.000224  -0.000509  -0.008157   0.014444   0.028396  -0.233964
    11  C    0.003199  -0.025083   0.041213  -0.025535   0.004903   0.030996
    12  O   -0.109687   0.002415  -0.001338  -0.018179   0.000083  -0.000008
    13  O    8.564684  -0.071783  -0.005357  -0.004538   0.000374  -0.000004
    14  H   -0.071783   1.644881  -0.184552  -0.003051   0.000134  -0.000338
    15  H   -0.005357  -0.184552   1.448792   0.002771  -0.065383   0.000524
    16  H   -0.004538  -0.003051   0.002771   1.551822  -0.003603   0.001172
    17  H    0.000374   0.000134  -0.065383  -0.003603   1.001649  -0.083478
    18  H   -0.000004  -0.000338   0.000524   0.001172  -0.083478   0.912052
    19  H   -0.000005   0.000080  -0.000587  -0.003747   0.000228  -0.040491
    20  H    0.000870  -0.000160   0.000086  -0.113363   0.008358  -0.015264
    21  H    0.135248   0.007344   0.000663   0.001224  -0.000049  -0.000001
              19         20         21
     1  C   -0.000732   0.017245  -0.007010
     2  C    0.002174   0.017845  -0.005049
     3  C   -0.017068  -0.008181   0.000635
     4  C   -0.025043   0.008065   0.001657
     5  C    0.080085  -0.123172  -0.002494
     6  C    0.011978  -0.138583  -0.018610
     7  C    0.001538  -0.012960   0.098706
     8  C    0.042297   0.020239  -0.000562
     9  C   -0.242235   0.026677   0.000060
    10  C    0.430270  -0.337622  -0.000120
    11  C   -0.260166   0.525817   0.000008
    12  O   -0.000048   0.002229  -0.115652
    13  O   -0.000005   0.000870   0.135248
    14  H    0.000080  -0.000160   0.007344
    15  H   -0.000587   0.000086   0.000663
    16  H   -0.003747  -0.113363   0.001224
    17  H    0.000228   0.008358  -0.000049
    18  H   -0.040491  -0.015264  -0.000001
    19  H    0.815803   0.026845   0.000004
    20  H    0.026845   0.952470  -0.000055
    21  H    0.000004  -0.000055   0.613226
 Mulliken charges:
               1
     1  C    1.402437
     2  C   -0.185068
     3  C   -0.893550
     4  C    1.469508
     5  C    1.305916
     6  C   -0.988740
     7  C    0.407043
     8  C   -0.674434
     9  C   -0.146059
    10  C   -0.316184
    11  C   -0.744974
    12  O   -0.938248
    13  O   -0.526887
    14  H    0.101888
    15  H   -0.060835
    16  H   -0.088843
    17  H    0.125790
    18  H    0.138980
    19  H    0.178819
    20  H    0.142612
    21  H    0.290828
 Sum of Mulliken charges =   0.00000
 Mulliken charges with hydrogens summed into heavy atoms:
               1
     1  C    1.402437
     2  C   -0.083180
     3  C   -0.954385
     4  C    1.469508
     5  C    1.305916
     6  C   -1.077583
     7  C    0.407043
     8  C   -0.548644
     9  C   -0.007079
    10  C   -0.137364
    11  C   -0.602362
    12  O   -0.938248
    13  O   -0.236060
 Electronic spatial extent (au):  <R**2>=           2601.5881
 Charge=              0.0000 electrons
 Dipole moment (field-independent basis, Debye):
    X=             -1.5338    Y=              1.6022    Z=              0.0186  Tot=              2.2181
 Quadrupole moment (field-independent basis, Debye-Ang):
   XX=            -63.3051   YY=            -71.8982   ZZ=            -78.9171
   XY=              6.3801   XZ=              0.0615   YZ=             -0.0706
 Traceless Quadrupole moment (field-independent basis, Debye-Ang):
   XX=              8.0684   YY=             -0.5247   ZZ=             -7.5437
   XY=              6.3801   XZ=              0.0615   YZ=             -0.0706
 Octapole moment (field-independent basis, Debye-Ang**2):
  XXX=             42.4453  YYY=              6.8812  ZZZ=              0.0339  XYY=            -17.2810
  XXY=             21.2300  XXZ=              0.4862  XZZ=             17.8497  YZZ=             -2.1415
  YYZ=              0.0463  XYZ=             -0.1240
 Hexadecapole moment (field-independent basis, Debye-Ang**3):
 XXXX=          -2150.1364 YYYY=           -639.0607 ZZZZ=            -87.0979 XXXY=             90.5858
 XXXZ=              1.6744 YYYX=             22.9116 YYYZ=             -0.1842 ZZZX=              0.1634
 ZZZY=              0.1096 XXYY=           -590.6499 XXZZ=           -488.4127 YYZZ=           -141.1196
 XXYZ=             -0.6172 YYXZ=              0.1196 ZZXY=             -5.5113
 N-N= 7.096288654255D+02 E-N=-2.757508832641D+03  KE= 5.715607272891D+02
 ******************************Gaussian NBO Version 3.1******************************
             N A T U R A L   A T O M I C   O R B I T A L   A N D
          N A T U R A L   B O N D   O R B I T A L   A N A L Y S I S
 ******************************Gaussian NBO Version 3.1******************************
       /RESON  / : Allow strongly delocalized NBO set

 Analyzing the SCF density

 Job title: CYH-255-A_eq00004                                               

 Storage needed:   1837820 in NPA,   2448929 in NBO (********** available)
 GSVD:  LWork=       49732 too small for GESVD, short by     1069100 words or     1069100 for optimal perf.
 Remove ICRem=  238 ICRemI=  239 L=1 PNAO number  246 atom    6 type 153 NPNAO=  782
   due to symmetric orthogonalization 2, value= 0.00D+00.
 Remove ICRem=  238 ICRemI=  239 L=1 PNAO number  242 atom    6 type 152 NPNAO=  781
   due to symmetric orthogonalization 2, value= 0.00D+00.
 Remove ICRem=  238 ICRemI=  239 L=1 PNAO number  238 atom    6 type 151 NPNAO=  780
   due to symmetric orthogonalization 2, value= 0.00D+00.
 GSVD:  LWork=       56074 too small for GESVD, short by     1050101 words or     1050101 for optimal perf.

 Computed number of electrons   89.99993992 does not match expected value of    90.


 NATURAL POPULATIONS:  Natural atomic orbital occupancies 
                                                          
   NAO  Atom  No  lang   Type(AO)    Occupancy      Energy
 ----------------------------------------------------------
     1    C    1  S      Cor( 1S)     1.99903     -10.41290
     2    C    1  S      Val( 2S)     0.93233      -0.18316
     3    C    1  S      Ryd( 3S)     0.00210       1.56283
     4    C    1  S      Ryd( 4S)     0.00010       2.09151
     5    C    1  S      Ryd( 5S)     0.00003       3.44318
     6    C    1  px     Val( 2p)     1.06607      -0.09565
     7    C    1  px     Ryd( 4p)     0.00675       2.08796
     8    C    1  px     Ryd( 3p)     0.00014       1.02144
     9    C    1  px     Ryd( 5p)     0.00007       2.69035
    10    C    1  py     Val( 2p)     1.09715      -0.09294
    11    C    1  py     Ryd( 4p)     0.00669       1.78842
    12    C    1  py     Ryd( 3p)     0.00015       1.31894
    13    C    1  py     Ryd( 5p)     0.00005       2.65347
    14    C    1  pz     Val( 2p)     1.07252      -0.13676
    15    C    1  pz     Ryd( 3p)     0.00139       0.81204
    16    C    1  pz     Ryd( 4p)     0.00029       1.29813
    17    C    1  pz     Ryd( 5p)     0.00008       1.82132
    18    C    1  dxy    Ryd( 3d)     0.00088       2.49001
    19    C    1  dxy    Ryd( 4d)     0.00035       3.89759
    20    C    1  dxy    Ryd( 5d)     0.00006       5.26472
    21    C    1  dxz    Ryd( 3d)     0.00083       1.03626
    22    C    1  dxz    Ryd( 5d)     0.00027       3.19984
    23    C    1  dxz    Ryd( 4d)     0.00002       2.31161
    24    C    1  dyz    Ryd( 3d)     0.00028       0.99652
    25    C    1  dyz    Ryd( 5d)     0.00021       3.19789
    26    C    1  dyz    Ryd( 4d)     0.00002       2.52374
    27    C    1  dx2y2  Ryd( 3d)     0.00206       3.08802
    28    C    1  dx2y2  Ryd( 5d)     0.00037       4.11282
    29    C    1  dx2y2  Ryd( 4d)     0.00006       4.08193
    30    C    1  dz2    Ryd( 3d)     0.00084       1.05864
    31    C    1  dz2    Ryd( 5d)     0.00015       4.29495
    32    C    1  dz2    Ryd( 4d)     0.00004       4.10817
    33    C    1  f(0)   Ryd( 4f)     0.00037       1.40298
    34    C    1  f(0)   Ryd( 5f)     0.00016       3.56432
    35    C    1  f(C1)  Ryd( 4f)     0.00035       1.92274
    36    C    1  f(C1)  Ryd( 5f)     0.00032       3.69500
    37    C    1  f(S1)  Ryd( 4f)     0.00067       1.80894
    38    C    1  f(S1)  Ryd( 5f)     0.00024       3.69686
    39    C    1  f(C2)  Ryd( 4f)     0.00084       1.33993
    40    C    1  f(C2)  Ryd( 5f)     0.00002       3.62162
    41    C    1  f(S2)  Ryd( 4f)     0.00040       1.33633
    42    C    1  f(S2)  Ryd( 5f)     0.00001       3.61051
    43    C    1  f(C3)  Ryd( 4f)     0.00178       2.58218
    44    C    1  f(C3)  Ryd( 5f)     0.00015       4.37721
    45    C    1  f(S3)  Ryd( 4f)     0.00131       2.94274
    46    C    1  f(S3)  Ryd( 5f)     0.00012       4.41815
 
    47    C    2  S      Cor( 1S)     1.99920     -10.39871
    48    C    2  S      Val( 2S)     0.95970      -0.20668
    49    C    2  S      Ryd( 3S)     0.00105       1.79698
    50    C    2  S      Ryd( 5S)     0.00010       2.59663
    51    C    2  S      Ryd( 4S)     0.00003       2.10316
    52    C    2  px     Val( 2p)     1.12709      -0.07440
    53    C    2  px     Ryd( 4p)     0.00374       1.84960
    54    C    2  px     Ryd( 5p)     0.00014       2.06692
    55    C    2  px     Ryd( 3p)     0.00006       1.56649
    56    C    2  py     Val( 2p)     1.09538      -0.06789
    57    C    2  py     Ryd( 4p)     0.00397       1.66353
    58    C    2  py     Ryd( 5p)     0.00009       1.78360
    59    C    2  py     Ryd( 3p)     0.00003       1.52222
    60    C    2  pz     Val( 2p)     0.97608      -0.12339
    61    C    2  pz     Ryd( 4p)     0.00079       0.98266
    62    C    2  pz     Ryd( 5p)     0.00004       1.41928
    63    C    2  pz     Ryd( 3p)     0.00006       0.91965
    64    C    2  dxy    Ryd( 3d)     0.00190       2.18251
    65    C    2  dxy    Ryd( 5d)     0.00014       3.85884
    66    C    2  dxy    Ryd( 4d)     0.00009       3.15986
    67    C    2  dxz    Ryd( 3d)     0.00031       1.37957
    68    C    2  dxz    Ryd( 5d)     0.00008       3.18320
    69    C    2  dxz    Ryd( 4d)     0.00007       1.66550
    70    C    2  dyz    Ryd( 3d)     0.00073       1.22623
    71    C    2  dyz    Ryd( 5d)     0.00005       3.13781
    72    C    2  dyz    Ryd( 4d)     0.00002       1.54567
    73    C    2  dx2y2  Ryd( 4d)     0.00169       3.68332
    74    C    2  dx2y2  Ryd( 5d)     0.00021       4.33237
    75    C    2  dx2y2  Ryd( 3d)     0.00005       2.17702
    76    C    2  dz2    Ryd( 3d)     0.00093       1.75561
    77    C    2  dz2    Ryd( 4d)     0.00011       3.94322
    78    C    2  dz2    Ryd( 5d)     0.00006       4.31170
    79    C    2  f(0)   Ryd( 4f)     0.00018       1.50743
    80    C    2  f(0)   Ryd( 5f)     0.00007       3.35944
    81    C    2  f(C1)  Ryd( 4f)     0.00045       2.05096
    82    C    2  f(C1)  Ryd( 5f)     0.00017       3.62820
    83    C    2  f(S1)  Ryd( 4f)     0.00040       1.80862
    84    C    2  f(S1)  Ryd( 5f)     0.00011       3.44437
    85    C    2  f(C2)  Ryd( 4f)     0.00016       1.51490
    86    C    2  f(C2)  Ryd( 5f)     0.00002       3.40734
    87    C    2  f(S2)  Ryd( 4f)     0.00014       1.58477
    88    C    2  f(S2)  Ryd( 5f)     0.00004       3.39194
    89    C    2  f(C3)  Ryd( 4f)     0.00065       2.26806
    90    C    2  f(C3)  Ryd( 5f)     0.00015       4.05222
    91    C    2  f(S3)  Ryd( 4f)     0.00066       2.51053
    92    C    2  f(S3)  Ryd( 5f)     0.00021       4.05708
 
    93    C    3  S      Cor( 1S)     1.99918     -10.39697
    94    C    3  S      Val( 2S)     0.95371      -0.20145
    95    C    3  S      Ryd( 3S)     0.00113       1.82076
    96    C    3  S      Ryd( 5S)     0.00009       2.79600
    97    C    3  S      Ryd( 4S)     0.00001       1.92423
    98    C    3  px     Val( 2p)     1.05785      -0.06571
    99    C    3  px     Ryd( 5p)     0.00318       1.75481
   100    C    3  px     Ryd( 3p)     0.00010       1.35076
   101    C    3  px     Ryd( 4p)     0.00002       1.55611
   102    C    3  py     Val( 2p)     1.15546      -0.07395
   103    C    3  py     Ryd( 4p)     0.00448       1.59137
   104    C    3  py     Ryd( 5p)     0.00007       1.97607
   105    C    3  py     Ryd( 3p)     0.00004       1.43431
   106    C    3  pz     Val( 2p)     0.99384      -0.12449
   107    C    3  pz     Ryd( 3p)     0.00089       0.96903
   108    C    3  pz     Ryd( 5p)     0.00001       1.40338
   109    C    3  pz     Ryd( 4p)     0.00005       1.01690
   110    C    3  dxy    Ryd( 4d)     0.00170       3.31978
   111    C    3  dxy    Ryd( 5d)     0.00028       4.02709
   112    C    3  dxy    Ryd( 3d)     0.00004       2.52189
   113    C    3  dxz    Ryd( 3d)     0.00043       1.49454
   114    C    3  dxz    Ryd( 5d)     0.00004       2.92061
   115    C    3  dxz    Ryd( 4d)     0.00002       2.08686
   116    C    3  dyz    Ryd( 3d)     0.00011       1.43354
   117    C    3  dyz    Ryd( 5d)     0.00004       3.02015
   118    C    3  dyz    Ryd( 4d)     0.00004       1.73254
   119    C    3  dx2y2  Ryd( 3d)     0.00183       2.73580
   120    C    3  dx2y2  Ryd( 5d)     0.00013       3.83666
   121    C    3  dx2y2  Ryd( 4d)     0.00009       3.35432
   122    C    3  dz2    Ryd( 3d)     0.00081       1.63107
   123    C    3  dz2    Ryd( 4d)     0.00013       3.76687
   124    C    3  dz2    Ryd( 5d)     0.00007       3.81071
   125    C    3  f(0)   Ryd( 5f)     0.00012       3.49000
   126    C    3  f(0)   Ryd( 4f)     0.00005       2.20617
   127    C    3  f(C1)  Ryd( 5f)     0.00023       3.81461
   128    C    3  f(C1)  Ryd( 4f)     0.00002       3.26532
   129    C    3  f(S1)  Ryd( 5f)     0.00013       3.72693
   130    C    3  f(S1)  Ryd( 4f)     0.00003       2.83902
   131    C    3  f(C2)  Ryd( 5f)     0.00002       3.62550
   132    C    3  f(C2)  Ryd( 4f)     0.00002       2.41142
   133    C    3  f(S2)  Ryd( 5f)     0.00001       3.58845
   134    C    3  f(S2)  Ryd( 4f)     0.00003       2.27244
   135    C    3  f(C3)  Ryd( 4f)     0.00014       4.28354
   136    C    3  f(C3)  Ryd( 5f)     0.00005       4.63066
   137    C    3  f(S3)  Ryd( 4f)     0.00011       4.25379
   138    C    3  f(S3)  Ryd( 5f)     0.00008       5.07912
 
   139    C    4  S      Cor( 1S)     1.99912     -10.40525
   140    C    4  S      Val( 2S)     0.89297      -0.15947
   141    C    4  S      Ryd( 3S)     0.00093       1.65707
   142    C    4  S      Ryd( 4S)     0.00012       2.41107
   143    C    4  S      Ryd( 5S)     0.00001       3.21875
   144    C    4  px     Val( 2p)     1.07709      -0.07112
   145    C    4  px     Ryd( 4p)     0.00577       2.17948
   146    C    4  px     Ryd( 5p)     0.00007       3.14164
   147    C    4  px     Ryd( 3p)     0.00002       0.83638
   148    C    4  py     Val( 2p)     1.07023      -0.06791
   149    C    4  py     Ryd( 4p)     0.00438       1.92350
   150    C    4  py     Ryd( 5p)     0.00004       2.69100
   151    C    4  py     Ryd( 3p)     0.00003       0.86605
   152    C    4  pz     Val( 2p)     0.98400      -0.11800
   153    C    4  pz     Ryd( 4p)     0.00063       0.87690
   154    C    4  pz     Ryd( 5p)     0.00008       2.03791
   155    C    4  pz     Ryd( 3p)     0.00001       0.59355
   156    C    4  dxy    Ryd( 3d)     0.00076       3.38035
   157    C    4  dxy    Ryd( 4d)     0.00020       3.49323
   158    C    4  dxy    Ryd( 5d)     0.00009       4.55382
   159    C    4  dxz    Ryd( 3d)     0.00034       1.94247
   160    C    4  dxz    Ryd( 4d)     0.00007       2.36157
   161    C    4  dxz    Ryd( 5d)     0.00005       2.51603
   162    C    4  dyz    Ryd( 3d)     0.00037       1.87121
   163    C    4  dyz    Ryd( 4d)     0.00006       2.31899
   164    C    4  dyz    Ryd( 5d)     0.00011       2.36163
   165    C    4  dx2y2  Ryd( 4d)     0.00111       3.54642
   166    C    4  dx2y2  Ryd( 3d)     0.00008       3.31768
   167    C    4  dx2y2  Ryd( 5d)     0.00004       4.71936
   168    C    4  dz2    Ryd( 3d)     0.00057       2.48629
   169    C    4  dz2    Ryd( 4d)     0.00025       3.05942
   170    C    4  dz2    Ryd( 5d)     0.00008       4.76532
   171    C    4  f(0)   Ryd( 4f)     0.00024       1.39186
   172    C    4  f(0)   Ryd( 5f)     0.00012       3.58829
   173    C    4  f(C1)  Ryd( 4f)     0.00055       1.96153
   174    C    4  f(C1)  Ryd( 5f)     0.00024       3.75249
   175    C    4  f(S1)  Ryd( 4f)     0.00053       1.71609
   176    C    4  f(S1)  Ryd( 5f)     0.00014       3.71232
   177    C    4  f(C2)  Ryd( 4f)     0.00031       1.30181
   178    C    4  f(C2)  Ryd( 5f)     0.00001       3.65155
   179    C    4  f(S2)  Ryd( 4f)     0.00064       1.29360
   180    C    4  f(S2)  Ryd( 5f)     0.00003       3.63780
   181    C    4  f(C3)  Ryd( 4f)     0.00185       2.49801
   182    C    4  f(C3)  Ryd( 5f)     0.00012       4.38799
   183    C    4  f(S3)  Ryd( 4f)     0.00159       2.32266
   184    C    4  f(S3)  Ryd( 5f)     0.00012       4.37953
 
   185    C    5  S      Cor( 1S)     1.99915     -10.40293
   186    C    5  S      Val( 2S)     0.89217      -0.15524
   187    C    5  S      Ryd( 3S)     0.00148       1.55439
   188    C    5  S      Ryd( 4S)     0.00012       2.12224
   189    C    5  S      Ryd( 5S)     0.00002       3.59706
   190    C    5  px     Val( 2p)     1.08047      -0.07501
   191    C    5  px     Ryd( 4p)     0.00565       2.12793
   192    C    5  px     Ryd( 3p)     0.00008       1.18093
   193    C    5  px     Ryd( 5p)     0.00010       3.19841
   194    C    5  py     Val( 2p)     1.07729      -0.07359
   195    C    5  py     Ryd( 4p)     0.00659       1.72453
   196    C    5  py     Ryd( 3p)     0.00011       1.36286
   197    C    5  py     Ryd( 5p)     0.00004       2.72861
   198    C    5  pz     Val( 2p)     1.01340      -0.12236
   199    C    5  pz     Ryd( 3p)     0.00122       0.77690
   200    C    5  pz     Ryd( 4p)     0.00033       1.37467
   201    C    5  pz     Ryd( 5p)     0.00009       1.83574
   202    C    5  dxy    Ryd( 3d)     0.00056       2.95952
   203    C    5  dxy    Ryd( 4d)     0.00033       3.69921
   204    C    5  dxy    Ryd( 5d)     0.00005       5.02809
   205    C    5  dxz    Ryd( 3d)     0.00042       1.37627
   206    C    5  dxz    Ryd( 5d)     0.00050       2.85128
   207    C    5  dxz    Ryd( 4d)     0.00002       2.60911
   208    C    5  dyz    Ryd( 3d)     0.00013       1.35032
   209    C    5  dyz    Ryd( 5d)     0.00012       2.81599
   210    C    5  dyz    Ryd( 4d)     0.00008       2.50982
   211    C    5  dx2y2  Ryd( 3d)     0.00087       2.93433
   212    C    5  dx2y2  Ryd( 4d)     0.00020       3.57111
   213    C    5  dx2y2  Ryd( 5d)     0.00004       5.26132
   214    C    5  dz2    Ryd( 3d)     0.00065       1.48435
   215    C    5  dz2    Ryd( 4d)     0.00020       3.71086
   216    C    5  dz2    Ryd( 5d)     0.00004       4.46153
   217    C    5  f(0)   Ryd( 4f)     0.00018       1.37843
   218    C    5  f(0)   Ryd( 5f)     0.00015       3.60226
   219    C    5  f(C1)  Ryd( 4f)     0.00066       2.04006
   220    C    5  f(C1)  Ryd( 5f)     0.00019       3.78145
   221    C    5  f(S1)  Ryd( 4f)     0.00062       1.86502
   222    C    5  f(S1)  Ryd( 5f)     0.00022       3.71736
   223    C    5  f(C2)  Ryd( 4f)     0.00034       1.27204
   224    C    5  f(C2)  Ryd( 5f)     0.00001       3.65961
   225    C    5  f(S2)  Ryd( 4f)     0.00066       1.29151
   226    C    5  f(S2)  Ryd( 5f)     0.00002       3.66097
   227    C    5  f(C3)  Ryd( 4f)     0.00199       2.91955
   228    C    5  f(C3)  Ryd( 5f)     0.00011       4.42095
   229    C    5  f(S3)  Ryd( 4f)     0.00208       2.52042
   230    C    5  f(S3)  Ryd( 5f)     0.00014       4.40456
 
   231    C    6  S      Cor( 1S)     1.99912     -10.40215
   232    C    6  S      Val( 2S)     0.95454      -0.19745
   233    C    6  S      Ryd( 3S)     0.00064       1.88596
   234    C    6  S      Ryd( 4S)     0.00017       2.27984
   235    C    6  S      Ryd( 5S)     0.00002       2.31067
   236    C    6  px     Val( 2p)     1.02423      -0.06286
   237    C    6  px     Ryd( 3p)     0.00169       1.83431
   238    C    6  px     Ryd( 4p)     0.00010       2.53224
   239    C    6  py     Val( 2p)     1.15594      -0.07808
   240    C    6  py     Ryd( 3p)     0.00281       1.58141
   241    C    6  py     Ryd( 4p)     0.00007       1.64486
   242    C    6  pz     Val( 2p)     0.90940      -0.12187
   243    C    6  pz     Ryd( 3p)     0.00042       1.00307
   244    C    6  pz     Ryd( 4p)     0.00016       1.22709
   245    C    6  dxy    Ryd( 4d)     0.00143       3.57213
   246    C    6  dxy    Ryd( 5d)     0.00024       4.21965
   247    C    6  dxy    Ryd( 3d)     0.00008       3.51571
   248    C    6  dxz    Ryd( 3d)     0.00032       1.24515
   249    C    6  dxz    Ryd( 5d)     0.00013       3.20210
   250    C    6  dxz    Ryd( 4d)     0.00007       2.19560
   251    C    6  dyz    Ryd( 3d)     0.00160       1.10381
   252    C    6  dyz    Ryd( 5d)     0.00008       3.25181
   253    C    6  dyz    Ryd( 4d)     0.00001       2.07073
   254    C    6  dx2y2  Ryd( 3d)     0.00130       2.45179
   255    C    6  dx2y2  Ryd( 5d)     0.00025       4.04588
   256    C    6  dx2y2  Ryd( 4d)     0.00005       4.01054
   257    C    6  dz2    Ryd( 3d)     0.00084       1.40381
   258    C    6  dz2    Ryd( 4d)     0.00014       3.82438
   259    C    6  dz2    Ryd( 5d)     0.00005       4.41876
   260    C    6  f(0)   Ryd( 4f)     0.00054       1.40749
   261    C    6  f(0)   Ryd( 5f)     0.00005       3.47835
   262    C    6  f(C1)  Ryd( 4f)     0.00047       2.09071
   263    C    6  f(C1)  Ryd( 5f)     0.00014       3.76245
   264    C    6  f(S1)  Ryd( 4f)     0.00116       1.77431
   265    C    6  f(S1)  Ryd( 5f)     0.00005       3.68286
   266    C    6  f(C2)  Ryd( 4f)     0.00034       1.32468
   267    C    6  f(C2)  Ryd( 5f)     0.00001       3.55444
   268    C    6  f(S2)  Ryd( 4f)     0.00026       1.39507
   269    C    6  f(S2)  Ryd( 5f)     0.00001       3.54458
   270    C    6  f(C3)  Ryd( 4f)     0.00075       2.82807
   271    C    6  f(C3)  Ryd( 5f)     0.00020       4.30445
   272    C    6  f(S3)  Ryd( 4f)     0.00089       2.68882
   273    C    6  f(S3)  Ryd( 5f)     0.00019       4.37740
 
   274    C    7  S      Cor( 1S)     1.99938     -10.55907
   275    C    7  S      Val( 2S)     0.79154      -0.14358
   276    C    7  S      Ryd( 4S)     0.00433       1.89592
   277    C    7  S      Ryd( 3S)     0.00021       1.78780
   278    C    7  S      Ryd( 5S)     0.00005       2.36286
   279    C    7  px     Val( 2p)     0.89261      -0.06298
   280    C    7  px     Ryd( 5p)     0.00463       1.54554
   281    C    7  px     Ryd( 3p)     0.00023       1.12255
   282    C    7  px     Ryd( 4p)     0.00001       1.47521
   283    C    7  py     Val( 2p)     0.74070      -0.00986
   284    C    7  py     Ryd( 4p)     0.01536       1.56916
   285    C    7  py     Ryd( 3p)     0.00013       1.27288
   286    C    7  py     Ryd( 5p)     0.00004       1.89225
   287    C    7  pz     Val( 2p)     0.73928      -0.12383
   288    C    7  pz     Ryd( 5p)     0.00037       1.10805
   289    C    7  pz     Ryd( 3p)     0.00010       0.74206
   290    C    7  pz     Ryd( 4p)     0.00003       1.04249
   291    C    7  dxy    Ryd( 4d)     0.00112       3.19464
   292    C    7  dxy    Ryd( 3d)     0.00041       2.33322
   293    C    7  dxy    Ryd( 5d)     0.00006       3.72764
   294    C    7  dxz    Ryd( 4d)     0.00119       2.38382
   295    C    7  dxz    Ryd( 3d)     0.00012       1.53999
   296    C    7  dxz    Ryd( 5d)     0.00006       2.62614
   297    C    7  dyz    Ryd( 4d)     0.00155       2.59683
   298    C    7  dyz    Ryd( 3d)     0.00007       1.71033
   299    C    7  dyz    Ryd( 5d)     0.00005       2.76492
   300    C    7  dx2y2  Ryd( 4d)     0.00161       3.16078
   301    C    7  dx2y2  Ryd( 3d)     0.00013       2.09342
   302    C    7  dx2y2  Ryd( 5d)     0.00008       4.01991
   303    C    7  dz2    Ryd( 5d)     0.00023       3.34532
   304    C    7  dz2    Ryd( 3d)     0.00051       2.32332
   305    C    7  dz2    Ryd( 4d)     0.00011       3.32113
   306    C    7  f(0)   Ryd( 5f)     0.00009       3.45680
   307    C    7  f(0)   Ryd( 4f)     0.00002       2.42217
   308    C    7  f(C1)  Ryd( 5f)     0.00009       3.62618
   309    C    7  f(C1)  Ryd( 4f)     0.00001       3.01494
   310    C    7  f(S1)  Ryd( 5f)     0.00008       3.64607
   311    C    7  f(S1)  Ryd( 4f)     0.00004       3.48819
   312    C    7  f(C2)  Ryd( 5f)     0.00000       3.43771
   313    C    7  f(C2)  Ryd( 4f)     0.00003       2.63424
   314    C    7  f(S2)  Ryd( 5f)     0.00002       3.50344
   315    C    7  f(S2)  Ryd( 4f)     0.00001       2.80619
   316    C    7  f(C3)  Ryd( 4f)     0.00008       4.57156
   317    C    7  f(C3)  Ryd( 5f)     0.00004       6.60259
   318    C    7  f(S3)  Ryd( 4f)     0.00008       4.42988
   319    C    7  f(S3)  Ryd( 5f)     0.00002       5.80008
 
   320    C    8  S      Cor( 1S)     1.99919     -10.39666
   321    C    8  S      Val( 2S)     0.95591      -0.20562
   322    C    8  S      Ryd( 4S)     0.00117       1.86085
   323    C    8  S      Ryd( 5S)     0.00009       2.79999
   324    C    8  S      Ryd( 3S)     0.00001       1.65022
   325    C    8  px     Val( 2p)     1.04777      -0.06233
   326    C    8  px     Ryd( 5p)     0.00300       1.69062
   327    C    8  px     Ryd( 3p)     0.00005       1.16122
   328    C    8  px     Ryd( 4p)     0.00001       1.58783
   329    C    8  py     Val( 2p)     1.16729      -0.07921
   330    C    8  py     Ryd( 4p)     0.00475       1.71425
   331    C    8  py     Ryd( 3p)     0.00005       1.57309
   332    C    8  py     Ryd( 5p)     0.00006       1.87882
   333    C    8  pz     Val( 2p)     0.99402      -0.12440
   334    C    8  pz     Ryd( 4p)     0.00090       1.00902
   335    C    8  pz     Ryd( 3p)     0.00002       0.99371
   336    C    8  pz     Ryd( 5p)     0.00005       1.29730
   337    C    8  dxy    Ryd( 4d)     0.00151       3.44917
   338    C    8  dxy    Ryd( 5d)     0.00020       4.00774
   339    C    8  dxy    Ryd( 3d)     0.00008       2.57497
   340    C    8  dxz    Ryd( 3d)     0.00033       1.50369
   341    C    8  dxz    Ryd( 5d)     0.00003       2.92694
   342    C    8  dxz    Ryd( 4d)     0.00004       1.72545
   343    C    8  dyz    Ryd( 3d)     0.00021       1.50454
   344    C    8  dyz    Ryd( 5d)     0.00003       3.00232
   345    C    8  dyz    Ryd( 4d)     0.00001       1.53251
   346    C    8  dx2y2  Ryd( 3d)     0.00176       2.66338
   347    C    8  dx2y2  Ryd( 5d)     0.00015       3.74550
   348    C    8  dx2y2  Ryd( 4d)     0.00005       2.98931
   349    C    8  dz2    Ryd( 3d)     0.00074       1.76477
   350    C    8  dz2    Ryd( 4d)     0.00009       3.69905
   351    C    8  dz2    Ryd( 5d)     0.00008       3.87898
   352    C    8  f(0)   Ryd( 5f)     0.00010       3.43236
   353    C    8  f(0)   Ryd( 4f)     0.00004       2.15059
   354    C    8  f(C1)  Ryd( 5f)     0.00023       3.74900
   355    C    8  f(C1)  Ryd( 4f)     0.00001       3.16376
   356    C    8  f(S1)  Ryd( 5f)     0.00014       3.71106
   357    C    8  f(S1)  Ryd( 4f)     0.00005       2.74781
   358    C    8  f(C2)  Ryd( 5f)     0.00001       3.57951
   359    C    8  f(C2)  Ryd( 4f)     0.00003       2.15917
   360    C    8  f(S2)  Ryd( 5f)     0.00002       3.53329
   361    C    8  f(S2)  Ryd( 4f)     0.00003       2.37027
   362    C    8  f(C3)  Ryd( 4f)     0.00010       4.19674
   363    C    8  f(C3)  Ryd( 5f)     0.00009       4.98166
   364    C    8  f(S3)  Ryd( 4f)     0.00009       4.21026
   365    C    8  f(S3)  Ryd( 5f)     0.00007       4.52997
 
   366    C    9  S      Cor( 1S)     1.99927     -10.39948
   367    C    9  S      Val( 2S)     0.96724      -0.22024
   368    C    9  S      Ryd( 4S)     0.00114       1.74815
   369    C    9  S      Ryd( 5S)     0.00005       3.00829
   370    C    9  S      Ryd( 3S)     0.00001       1.61148
   371    C    9  px     Val( 2p)     1.16609      -0.07654
   372    C    9  px     Ryd( 4p)     0.00458       1.58450
   373    C    9  px     Ryd( 3p)     0.00003       1.32385
   374    C    9  px     Ryd( 5p)     0.00002       1.85834
   375    C    9  py     Val( 2p)     1.05612      -0.06764
   376    C    9  py     Ryd( 5p)     0.00339       1.63275
   377    C    9  py     Ryd( 3p)     0.00002       1.12836
   378    C    9  py     Ryd( 4p)     0.00005       1.41932
   379    C    9  pz     Val( 2p)     0.98546      -0.12476
   380    C    9  pz     Ryd( 4p)     0.00085       1.00371
   381    C    9  pz     Ryd( 3p)     0.00003       0.84496
   382    C    9  pz     Ryd( 5p)     0.00000       1.36746
   383    C    9  dxy    Ryd( 4d)     0.00179       3.03507
   384    C    9  dxy    Ryd( 5d)     0.00019       3.90289
   385    C    9  dxy    Ryd( 3d)     0.00003       1.64965
   386    C    9  dxz    Ryd( 4d)     0.00020       1.33264
   387    C    9  dxz    Ryd( 5d)     0.00005       3.17397
   388    C    9  dxz    Ryd( 3d)     0.00002       1.19275
   389    C    9  dyz    Ryd( 3d)     0.00056       1.32339
   390    C    9  dyz    Ryd( 5d)     0.00001       3.07909
   391    C    9  dyz    Ryd( 4d)     0.00001       1.39098
   392    C    9  dx2y2  Ryd( 4d)     0.00217       2.31108
   393    C    9  dx2y2  Ryd( 5d)     0.00017       3.79319
   394    C    9  dx2y2  Ryd( 3d)     0.00005       2.21835
   395    C    9  dz2    Ryd( 3d)     0.00084       1.67926
   396    C    9  dz2    Ryd( 5d)     0.00006       3.89168
   397    C    9  dz2    Ryd( 4d)     0.00009       3.43045
   398    C    9  f(0)   Ryd( 5f)     0.00009       3.51865
   399    C    9  f(0)   Ryd( 4f)     0.00002       1.96327
   400    C    9  f(C1)  Ryd( 5f)     0.00015       3.74397
   401    C    9  f(C1)  Ryd( 4f)     0.00003       2.47439
   402    C    9  f(S1)  Ryd( 5f)     0.00022       3.74284
   403    C    9  f(S1)  Ryd( 4f)     0.00001       2.68265
   404    C    9  f(C2)  Ryd( 5f)     0.00000       3.67182
   405    C    9  f(C2)  Ryd( 4f)     0.00002       2.07123
   406    C    9  f(S2)  Ryd( 5f)     0.00001       3.61412
   407    C    9  f(S2)  Ryd( 4f)     0.00001       2.12390
   408    C    9  f(C3)  Ryd( 5f)     0.00009       4.28910
   409    C    9  f(C3)  Ryd( 4f)     0.00009       4.22639
   410    C    9  f(S3)  Ryd( 4f)     0.00008       4.27251
   411    C    9  f(S3)  Ryd( 5f)     0.00009       4.27843
 
   412    C   10  S      Cor( 1S)     1.99927     -10.39747
   413    C   10  S      Val( 2S)     0.96646      -0.21864
   414    C   10  S      Ryd( 4S)     0.00117       1.73718
   415    C   10  S      Ryd( 5S)     0.00006       3.06679
   416    C   10  S      Ryd( 3S)     0.00002       1.51699
   417    C   10  px     Val( 2p)     1.11980      -0.07315
   418    C   10  px     Ryd( 5p)     0.00406       1.61942
   419    C   10  px     Ryd( 4p)     0.00004       1.59175
   420    C   10  px     Ryd( 3p)     0.00002       1.27726
   421    C   10  py     Val( 2p)     1.10422      -0.07126
   422    C   10  py     Ryd( 5p)     0.00395       1.61860
   423    C   10  py     Ryd( 4p)     0.00004       1.58728
   424    C   10  py     Ryd( 3p)     0.00003       1.25935
   425    C   10  pz     Val( 2p)     0.99912      -0.12492
   426    C   10  pz     Ryd( 4p)     0.00089       1.01041
   427    C   10  pz     Ryd( 5p)     0.00000       1.32904
   428    C   10  pz     Ryd( 3p)     0.00002       0.90296
   429    C   10  dxy    Ryd( 3d)     0.00224       2.03647
   430    C   10  dxy    Ryd( 5d)     0.00015       3.75937
   431    C   10  dxy    Ryd( 4d)     0.00005       2.50815
   432    C   10  dxz    Ryd( 4d)     0.00031       1.31788
   433    C   10  dxz    Ryd( 5d)     0.00005       3.14907
   434    C   10  dxz    Ryd( 3d)     0.00001       1.27511
   435    C   10  dyz    Ryd( 4d)     0.00040       1.32725
   436    C   10  dyz    Ryd( 5d)     0.00003       3.13590
   437    C   10  dyz    Ryd( 3d)     0.00002       1.28058
   438    C   10  dx2y2  Ryd( 4d)     0.00173       3.27960
   439    C   10  dx2y2  Ryd( 5d)     0.00021       3.97150
   440    C   10  dx2y2  Ryd( 3d)     0.00004       1.34464
   441    C   10  dz2    Ryd( 3d)     0.00088       1.66639
   442    C   10  dz2    Ryd( 5d)     0.00007       3.90305
   443    C   10  dz2    Ryd( 4d)     0.00008       3.45593
   444    C   10  f(0)   Ryd( 5f)     0.00009       3.51272
   445    C   10  f(0)   Ryd( 4f)     0.00002       1.96577
   446    C   10  f(C1)  Ryd( 5f)     0.00018       3.75753
   447    C   10  f(C1)  Ryd( 4f)     0.00002       2.61103
   448    C   10  f(S1)  Ryd( 5f)     0.00020       3.72446
   449    C   10  f(S1)  Ryd( 4f)     0.00002       2.57714
   450    C   10  f(C2)  Ryd( 5f)     0.00001       3.59698
   451    C   10  f(C2)  Ryd( 4f)     0.00000       2.17789
   452    C   10  f(S2)  Ryd( 5f)     0.00001       3.68107
   453    C   10  f(S2)  Ryd( 4f)     0.00002       2.02943
   454    C   10  f(C3)  Ryd( 5f)     0.00007       4.26393
   455    C   10  f(C3)  Ryd( 4f)     0.00010       4.20254
   456    C   10  f(S3)  Ryd( 5f)     0.00010       4.28590
   457    C   10  f(S3)  Ryd( 4f)     0.00009       4.26075
 
   458    C   11  S      Cor( 1S)     1.99919     -10.39765
   459    C   11  S      Val( 2S)     0.95691      -0.20523
   460    C   11  S      Ryd( 4S)     0.00114       1.83448
   461    C   11  S      Ryd( 5S)     0.00010       2.86384
   462    C   11  S      Ryd( 3S)     0.00003       1.56251
   463    C   11  px     Val( 2p)     1.05736      -0.06572
   464    C   11  px     Ryd( 4p)     0.00361       1.76193
   465    C   11  px     Ryd( 3p)     0.00009       1.16828
   466    C   11  px     Ryd( 5p)     0.00004       1.91574
   467    C   11  py     Val( 2p)     1.15510      -0.07276
   468    C   11  py     Ryd( 3p)     0.00440       1.57545
   469    C   11  py     Ryd( 4p)     0.00008       1.58694
   470    C   11  py     Ryd( 5p)     0.00005       1.99126
   471    C   11  pz     Val( 2p)     0.97939      -0.12302
   472    C   11  pz     Ryd( 3p)     0.00075       0.96527
   473    C   11  pz     Ryd( 4p)     0.00008       0.99366
   474    C   11  pz     Ryd( 5p)     0.00005       1.42316
   475    C   11  dxy    Ryd( 4d)     0.00151       3.36337
   476    C   11  dxy    Ryd( 5d)     0.00021       3.92315
   477    C   11  dxy    Ryd( 3d)     0.00004       2.39538
   478    C   11  dxz    Ryd( 3d)     0.00063       1.37949
   479    C   11  dxz    Ryd( 5d)     0.00002       2.95573
[...]
 91290,0.02924466,0.00058724,0.00168014,-0.00014903,-0.03157011,0.00188
 142,0.08175219,-0.04045263,-0.27238027,-0.01121193,0.08756765,0.640876
 56,0.00293394,0.00587640,-0.00502281,-0.00045234,-0.00748215,-0.002722
 42,-0.00238476,0.00096743,0.00615435,-0.00149994,-0.01440679,-0.011034
 22,0.01723051,-0.01590335,-0.04856739,0.00125517,0.00698789,0.00669860
 ,0.00019744,0.00061399,-0.00097457,0.00517995,0.03489970,0.01386030,0.
 03484723,0.05631109,-0.12617123,-0.19688563,0.05548014,0.70052858,0.00
 949680,0.00501232,-0.00496877,-0.00181214,-0.00771380,-0.00229589,0.00
 255500,-0.00070049,0.00742344,0.00142760,-0.02095311,0.00038925,-0.101
 79988,-0.02769984,0.07525924,-0.00169491,0.00528198,0.01781921,0.00063
 915,0.00099211,0.00014178,-0.00857446,0.00470437,0.01658404,0.01541646
 ,0.00858882,-0.01723645,-0.07818043,-0.00256685,0.03765921,0.22133147,
 -0.00229975,-0.00706458,-0.00170258,0.00076614,0.00372374,0.00067601,-
 0.00087093,-0.00679870,-0.00475738,-0.01446047,0.00254296,0.03691528,-
 0.03873589,-0.13045916,0.06813071,0.01174907,0.00914078,-0.02855248,0.
 00023016,0.00203069,0.00027838,0.00626202,-0.00485240,-0.01769586,-0.0
 0891933,-0.05034716,-0.00929427,0.02093461,-0.25937165,-0.16980493,0.1
 0372497,0.74899000,-0.00920244,-0.02140724,0.01897810,0.00261679,0.023
 52503,0.00557088,0.00732425,-0.00521524,-0.01729859,0.00415241,0.05440
 804,0.02641739,0.06886388,0.03839694,-0.23121178,0.02156411,-0.0111285
 4,-0.06077226,-0.00029820,-0.00177346,0.00025776,0.01748637,-0.0134990
 9,-0.05836853,-0.02738038,-0.05646811,0.04822976,0.05127534,-0.1064821
 6,-0.26350502,-0.15874849,0.07329989,0.61030701,0.01991310,-0.00587582
 ,-0.00008415,0.00231286,-0.00014550,0.00136094,-0.00083372,0.00054117,
 -0.00082279,0.00009069,0.00030256,0.00025095,-0.00044391,0.00026429,-0
 .00151939,-0.00086707,-0.00011420,0.00312966,-0.12328642,-0.15564862,0
 .02569637,0.00023794,0.00008828,-0.00016754,0.00000345,-0.00003039,-0.
 00003409,0.00006873,-0.00014751,0.00000293,-0.00005154,-0.00016671,0.0
 0021984,0.09661255,-0.01081342,-0.05355689,-0.01396615,0.00240765,0.00
 246246,-0.00670959,0.00050107,-0.00279209,-0.00225047,-0.00064818,0.00
 032811,0.00186880,0.00076128,0.00004616,-0.00141827,-0.00417445,-0.003
 40847,0.00910036,-0.15308711,-0.70400061,0.05312693,0.00061784,0.00033
 709,-0.00155906,-0.00016750,-0.00089629,-0.00006654,-0.00003129,-0.000
 02894,0.00000977,-0.00030735,-0.00103597,0.00018965,0.20186486,0.81058
 696,-0.00293697,-0.02730409,0.01328115,0.00283437,0.00016834,-0.004687
 68,-0.00084305,-0.00234260,-0.00034128,-0.00029948,-0.00069518,0.00052
 201,-0.00123118,-0.00006684,0.00221245,0.00078721,-0.00185414,-0.00286
 483,0.02717372,0.06004254,-0.11916316,0.00013814,-0.00013372,-0.000292
 75,-0.00011324,-0.00043538,0.00005031,0.00006985,0.00032208,0.00009993
 ,0.00013918,-0.00018824,-0.00041730,-0.05199202,-0.09654133,0.11882422
 ,0.00639345,-0.00150529,0.01454925,-0.00039585,-0.00134472,0.00113440,
 -0.00038044,0.00068493,0.00011496,-0.00000302,-0.00011781,-0.00006311,
 -0.00065845,0.00038678,0.00002213,0.00172057,0.00112458,-0.00040869,-0
 .09692177,-0.02958230,0.06680413,0.00004412,-0.00001734,0.00017043,-0.
 00001007,0.00012810,0.00007654,0.00010457,0.00009128,0.00005145,-0.000
 04838,0.00023819,-0.00012161,0.00999983,-0.03766886,0.03203350,0.10139
 688,0.00870169,0.01191635,-0.02362075,-0.00045784,-0.00434983,-0.00147
 437,0.00032269,0.00153923,0.00030360,0.00030927,0.00007265,-0.00078983
 ,0.00104247,0.00060352,-0.00202954,-0.00063631,-0.00439592,-0.00160267
 ,-0.02009436,-0.13483120,0.01441578,-0.00005570,0.00037396,0.00030193,
 0.00018855,0.00027457,-0.00034361,0.00005028,-0.00030819,-0.00037491,-
 0.00017348,-0.00048697,0.00026928,-0.04151245,-0.04101691,0.07115688,0
 .04586053,0.50916760,0.02045564,0.00396208,-0.04086205,0.00164624,0.00
 092708,-0.00359782,-0.00009269,-0.00067465,-0.00062124,0.00018474,0.00
 036020,-0.00028983,0.00040433,-0.00026978,-0.00196860,-0.00143353,-0.0
 0635481,0.00150511,0.07228504,0.04005096,-0.23802917,0.00014802,0.0001
 9933,-0.00017332,0.00011191,-0.00018114,-0.00041554,0.00002759,-0.0004
 8583,-0.00025232,-0.00036049,-0.00084148,0.00033974,0.02980945,0.06077
 477,-0.01549361,-0.14192779,0.14776633,0.50787688,-0.00014276,-0.00124
 948,0.00709483,-0.08537128,-0.03157404,0.10484562,0.00385877,-0.001483
 23,0.00256798,0.00824783,-0.00118783,0.00268794,-0.00058574,0.00015869
 ,-0.00046101,0.00405102,-0.00231706,0.00101530,-0.00256719,0.00039366,
 0.00014949,-0.00000271,-0.00009812,0.00006043,-0.00055817,0.00019842,-
 0.00016295,0.00013854,-0.00001276,0.00001480,-0.00080763,0.00017689,-0
 .00027880,0.00040263,0.00000647,-0.00014457,0.00019230,0.00091560,0.00
 016833,0.07716829,-0.01075423,-0.00208585,0.02617536,-0.03099379,-0.07
 560644,0.06271449,0.00870964,0.01002006,-0.02063842,-0.00122599,-0.002
 82711,-0.00383980,0.00029835,-0.00075459,-0.00078282,-0.00219045,-0.00
 568600,-0.00024419,-0.00081649,0.00009585,0.00376954,0.00029498,0.0008
 0179,-0.00035347,0.00027043,-0.00004306,-0.00037044,-0.00008127,-0.000
 34217,-0.00006423,0.00007923,0.00019703,0.00045041,0.00042878,0.000740
 82,-0.00093251,0.00063567,-0.00102439,-0.00234431,0.03484648,0.0757630
 9,0.00158629,0.00056593,-0.00118926,0.10518427,0.06427437,-0.28590779,
 0.00847307,0.00683145,-0.01374515,0.00266519,-0.00394282,0.00003159,-0
 .00038025,-0.00040738,-0.00000214,0.00108747,0.00009465,0.00204886,-0.
 00055406,0.00049632,-0.00081630,0.00028804,0.00070573,-0.00032638,-0.0
 0012095,-0.00017629,-0.00043726,-0.00002508,-0.00024929,0.00006979,-0.
 00033516,0.00018742,0.00006303,0.00010276,0.00021756,0.00019588,0.0000
 0656,-0.00310085,-0.00175968,-0.11604046,-0.06544062,0.30143520,0.0075
 8164,-0.00069316,0.00303660,0.00551400,0.00402997,-0.00006567,-0.06153
 245,-0.07555099,0.01939977,0.00065825,-0.01165920,0.00160929,0.0035815
 5,-0.00068343,0.00350744,-0.00101109,0.00046651,0.00005914,0.00048891,
 0.00012641,0.00005129,-0.00249335,0.00018963,-0.00175389,-0.00002298,0
 .00016840,-0.00000717,-0.00017289,0.00002826,-0.00008276,0.00004945,-0
 .00065845,-0.00009991,-0.00029923,0.00014304,-0.00004909,0.00001534,-0
 .00002935,-0.00000345,-0.00450475,0.00096034,-0.00202348,0.05239603,-0
 .00036391,-0.00039764,-0.00438476,-0.00649730,-0.01595568,0.00558288,-
 0.07537330,-0.31173645,0.04452343,-0.00169542,-0.00474145,-0.00035964,
 -0.00106968,0.00159952,0.00089390,0.00037295,0.00048132,-0.00009453,-0
 .00057566,-0.00013929,0.00119246,0.00127248,0.00076447,-0.00113979,-0.
 00013423,-0.00006419,0.00036033,0.00007634,0.00032588,0.00010460,0.000
 05979,-0.00043325,-0.00050130,0.00008209,-0.00063898,-0.00038848,0.000
 12919,0.00000070,-0.00036009,0.00119793,0.00061719,0.00029535,0.082754
 74,0.33013092,0.00322720,-0.00349574,-0.00186620,-0.00616631,-0.022782
 51,0.00803708,0.01950291,0.04500013,-0.06456123,0.00738277,0.02648876,
 -0.00078152,0.00328408,-0.00014492,-0.00390260,0.00000554,-0.00034558,
 -0.00130485,-0.00035589,-0.00070025,0.00103405,-0.00112670,0.00177746,
 0.00088053,-0.00018243,-0.00045485,0.00016617,-0.00005488,0.00023418,0
 .00007390,0.00031621,0.00143410,0.00013269,-0.00008394,-0.00055486,-0.
 00044166,0.00008871,0.00006735,-0.00017985,-0.00188640,0.00093493,0.00
 016296,-0.02392731,-0.04658800,0.06319744,0.00246565,-0.01231292,0.001
 98409,0.00546187,-0.00108786,0.00440774,-0.00082914,0.00038211,-0.0001
 2540,0.00456557,-0.00017578,0.00225557,0.00564255,0.00365633,-0.000005
 42,-0.06344099,-0.07409319,0.01767053,-0.00487231,-0.00056305,-0.00151
 555,-0.00012004,0.00027216,-0.00004941,-0.00011357,0.00013455,-0.00013
 900,0.00003258,-0.00017446,-0.00005959,-0.00274052,0.00127329,-0.00123
 137,0.00028274,0.00074729,-0.00057473,0.00034214,0.00029453,-0.0002750
 6,0.00023544,-0.00065889,0.00012779,-0.00082866,0.00014797,-0.00034182
 ,0.05311717,-0.00270700,-0.00473459,0.00116599,-0.00140708,0.00192356,
 0.00066071,0.00050042,0.00029712,-0.00062161,-0.00002526,-0.00019918,-
 0.00319716,-0.00577606,-0.01409412,0.00458936,-0.07496518,-0.31521966,
 0.04315683,0.00094353,-0.00123872,-0.00018066,-0.00033563,-0.00065981,
 0.00063593,0.00004918,0.00003765,0.00000159,0.00006642,0.00013053,-0.0
 0013112,0.00032494,0.00091863,0.00166623,0.00073966,-0.00029353,-0.002
 11265,-0.00019875,-0.00001774,0.00042472,-0.00007438,-0.00012875,-0.00
 011978,0.00015074,-0.00014203,0.00008320,0.08246293,0.33324160,0.00755
 026,0.02703668,0.00116433,0.00422160,-0.00020106,-0.00416145,-0.000057
 17,-0.00030273,-0.00097895,0.00234265,-0.00279354,-0.00248979,-0.00546
 870,-0.02083154,0.00752549,0.01716343,0.04081701,-0.06357548,-0.000646
 98,0.00388665,-0.00133061,-0.00040177,-0.00100152,0.00030486,-0.000188
 19,-0.00022787,0.00018104,0.00007994,0.00051710,0.00013221,-0.00178093
 ,-0.00088769,0.00081268,-0.00057882,-0.00212816,0.00023783,-0.00055581
 ,-0.00090649,0.00115619,0.00046649,0.00145401,0.00001062,-0.00034016,0
 .00009112,-0.00001796,-0.02250044,-0.04486734,0.06169739,-0.00008972,0
 .00014203,-0.00017483,-0.00002666,-0.00018512,-0.00011775,-0.00262924,
 0.00127910,-0.00111653,0.00441744,0.00355052,-0.00017622,0.00452248,-0
 .00019630,0.00204517,0.00018390,0.00021884,0.00012974,0.00006952,0.000
 02690,0.00006010,-0.06124861,-0.07519012,0.01949530,0.00143235,-0.0120
 6015,0.00149309,0.00667156,-0.00145591,0.00480722,-0.00094205,0.000411
 75,-0.00006820,-0.00003796,-0.00001921,-0.00001496,-0.00001689,-0.0000
 0680,-0.00002898,0.00014702,-0.00003618,0.00005224,0.00026960,-0.00023
 090,0.00001340,0.00018679,-0.00000323,0.00011485,0.05244559,0.00013211
 ,0.00005496,-0.00021682,0.00012812,0.00008973,-0.00027564,0.00019509,0
 .00078893,0.00185416,-0.00644099,-0.01667627,0.00561385,0.00025252,-0.
 00042745,-0.00401264,-0.00056480,-0.00079074,0.00095690,-0.00007213,0.
 00021788,0.00027099,-0.07530759,-0.31155994,0.04433162,-0.00146883,-0.
 00360683,-0.00078545,-0.00178921,0.00206468,0.00093690,0.00047724,0.00
 040750,-0.00043803,0.00002451,-0.00008472,-0.00009235,0.00007107,-0.00
 000886,-0.00018191,-0.00002259,-0.00002011,-0.00005171,0.00034144,0.00
 029239,-0.00093839,0.00001227,-0.00015974,-0.00025894,0.08290526,0.329
 34358,-0.00018039,-0.00024331,0.00016019,0.00006366,0.00056820,0.00012
 707,-0.00174475,-0.00106673,0.00076441,-0.00596501,-0.02130720,0.00731
 563,0.00230504,-0.00280364,-0.00251149,-0.00032441,-0.00115507,0.00038
 986,0.00000275,0.00000370,0.00008120,0.01942756,0.04401574,-0.06469201
 ,0.00762914,0.02775161,0.00010218,0.00461410,0.00003898,-0.00364111,-0
 .00003011,-0.00026162,-0.00112633,0.00001038,0.00002552,-0.00005268,0.
 00001614,0.00002839,-0.00005343,0.00006014,-0.00001508,0.00000338,0.00
 034500,0.00060360,-0.00025551,0.00012387,-0.00021710,-0.00022942,-0.02
 424191,-0.04741764,0.06346938,0.00008627,-0.00018226,0.00013217,-0.000
 68258,0.00020791,0.00000822,0.00022737,0.00048753,0.00006895,0.0071265
 9,-0.00272271,0.00490481,-0.00086251,-0.00007214,0.00012489,-0.0008007
 3,0.00018251,-0.00053879,0.00009164,-0.00005210,0.00002830,0.00327381,
 0.00893368,0.00896828,-0.04701417,0.01948052,0.03043874,0.00462464,-0.
 00594470,-0.00646835,0.00433380,-0.00272447,0.00188404,-0.00000823,0.0
 0002459,0.00000074,-0.00002142,0.00001923,0.00000406,0.00001574,0.0000
 4116,0.00004402,0.00013345,-0.00004508,0.00005867,-0.00001323,0.000023
 97,0.00001567,-0.00428653,0.00099018,-0.00206625,0.03593127,-0.0001538
 6,-0.00020731,0.00019349,0.00014491,0.00027034,0.00018584,0.00007446,0
 .00030754,-0.00010835,-0.00258027,0.00079758,0.00189150,-0.00027524,0.
 00000668,0.00120935,0.00033921,-0.00012859,-0.00038600,-0.00004398,0.0
 0000372,0.00005514,-0.00167179,0.00980165,0.00747127,0.01971831,-0.192
 60146,-0.14159931,0.00454624,-0.01447054,-0.02266269,-0.00289181,-0.00
 459209,0.00187556,0.00001375,-0.00001329,-0.00003707,0.00002243,0.0000
 0226,-0.00004532,-0.00000967,0.00003724,0.00003420,-0.00002805,0.00000
 768,-0.00001555,-0.00000666,0.00004846,0.00005330,0.00124492,0.0004889
 2,-0.00001980,-0.01924128,0.20017827,0.00014881,0.00026997,-0.00007014
 ,-0.00002836,0.00001599,-0.00063859,-0.00017040,-0.00122118,-0.0001001
 9,0.00498748,0.00227551,-0.00258765,0.00000731,0.00066209,-0.00043663,
 -0.00044822,0.00003603,0.00018861,0.00003294,0.00007697,0.00006914,0.0
 0282360,-0.02110428,-0.01515415,0.03057656,-0.14095841,-0.20396219,-0.
 00038999,0.00560417,0.00780012,0.00178696,0.00142473,0.00162951,-0.000
 00551,-0.00006637,-0.00003669,0.00000591,-0.00003641,-0.00006121,0.000
 01454,-0.00010287,-0.00007559,0.00006853,0.00003029,-0.00000216,-0.000
 00205,-0.00002918,-0.00002394,-0.00191871,0.00066639,0.00028961,-0.036
 31839,0.15241926,0.21275672,-0.00056487,0.00026661,-0.00013406,0.00013
 484,-0.00006836,0.00000368,-0.00086000,0.00019248,-0.00022874,-0.00059
 215,0.00011072,-0.00058140,0.00824948,-0.00098596,0.00268650,0.0001593
 8,-0.00016308,0.00016782,-0.00005005,-0.00007985,-0.00009831,0.0046205
 6,-0.00251537,0.00129251,0.00020789,-0.00080797,0.00720675,-0.08409647
 ,-0.03108420,0.10366799,0.00299705,-0.00168031,0.00288871,-0.00001157,
 0.00006031,0.00001662,-0.00000074,0.00000960,0.00004995,0.00004294,-0.
 00000989,0.00002381,0.00002865,-0.00000494,-0.00000174,0.00019314,-0.0
 0003379,0.00007413,-0.00003759,-0.00004027,0.00037606,-0.00226386,0.00
 057710,-0.00117276,0.07622408,0.00027448,0.00000681,-0.00034619,-0.000
 08027,-0.00043208,-0.00012134,0.00004022,0.00021873,0.00058986,0.00031
 619,-0.00097591,-0.00093558,-0.00117764,-0.00275504,-0.00390341,0.0002
 6890,0.00078997,-0.00041557,0.00005864,0.00009002,-0.00006560,-0.00233
 547,-0.00529579,-0.00004402,-0.01131958,-0.00233311,0.02737711,-0.0313
 0472,-0.07638781,0.06264994,0.00893972,0.01005103,-0.02083078,0.000003
 29,-0.00001038,-0.00000427,0.00000969,-0.00003740,-0.00005699,-0.00000
 866,0.00001177,-0.00000110,0.00002935,0.00003229,-0.00007721,-0.000045
 69,0.00000800,-0.00000438,-0.00058109,-0.00027993,0.00133943,0.0009128
 5,0.00087926,-0.00031444,0.03506986,0.07580720,-0.00012939,-0.00032535
 ,-0.00051154,-0.00000334,-0.00015349,0.00007084,-0.00031700,0.00017950
 ,-0.00002812,-0.00046235,-0.00038193,0.00019268,0.00257554,-0.00441989
 ,-0.00004182,0.00041824,0.00074880,-0.00043626,-0.00001822,0.00030749,
 0.00015786,0.00139659,0.00044038,0.00213333,0.00111648,-0.00094503,-0.
 00049960,0.10354019,0.06205551,-0.28196326,0.00904184,0.00778391,-0.01
 542217,-0.00001635,-0.00015800,-0.00006569,0.00004999,-0.00005664,-0.0
 0015213,0.00002454,0.00000224,-0.00001092,0.00001813,0.00001521,-0.000
 01098,0.00006723,-0.00003627,0.00002572,0.00006270,-0.00011777,-0.0001
 2651,-0.00097824,0.00059022,0.00015451,-0.11439557,-0.06576671,0.29635
 119,-0.00004931,0.00014109,0.00000445,-0.00004194,0.00003111,-0.000030
 05,-0.00001795,-0.00065208,-0.00016988,0.00384507,-0.00070545,0.003680
 16,0.00035016,-0.01159471,0.00145867,-0.00241567,0.00018716,-0.0017431
 7,0.00014667,-0.00015019,0.00011341,-0.00097575,0.00045110,-0.00005248
 ,0.00760065,-0.00070911,0.00310688,0.00576061,0.00399144,-0.00003627,-
 0.06152566,-0.07529917,0.01915902,-0.00004332,0.00009157,-0.00005612,-
 0.00001005,0.00004152,-0.00003296,0.00003920,0.00002223,0.00001746,0.0
 0012337,-0.00008533,0.00024420,0.00026645,0.00031297,0.00035892,-0.001
 03080,0.00018261,-0.00042240,0.00009990,0.00022495,0.00000408,-0.00440
 056,0.00092967,-0.00199722,0.05228416,-0.00013541,-0.00007475,0.000367
 09,0.00004801,0.00036852,0.00011860,0.00009751,-0.00043652,-0.00054989
 ,-0.00112965,0.00170806,0.00092641,-0.00161845,-0.00474490,-0.00034933
 ,0.00126209,0.00079984,-0.00113951,-0.00006285,-0.00017927,-0.00006255
 ,0.00041662,0.00045508,-0.00022601,-0.00042495,-0.00057051,-0.00434593
 ,-0.00658018,-0.01541749,0.00596454,-0.07522842,-0.31260584,0.04372284
 ,0.00003280,0.00012123,0.00003031,-0.00000785,0.00005308,0.00007011,-0
 .00000477,0.00002817,0.00000551,-0.00008390,-0.00000716,0.00008723,-0.
 00023313,0.00023748,0.00057296,0.00018453,-0.00014038,0.00013237,-0.00
 031717,-0.00081802,0.00034986,0.00119429,0.00060751,0.00022909,0.08258
 967,0.33062261,-0.00015539,-0.00037756,0.00012176,-0.00002030,0.000163
 93,0.00009001,0.00026439,0.00146976,0.00019846,0.00343441,-0.00021656,
 -0.00401647,0.00723917,0.02653104,-0.00074845,-0.00112096,0.00175602,0
 .00093396,0.00016357,0.00017249,-0.00012053,-0.00007252,-0.00031873,-0
 .00108146,0.00327167,-0.00357982,-0.00198318,-0.00616142,-0.02252032,0
 .00844203,0.01919982,0.04391356,-0.06451265,-0.00008999,-0.00012792,0.
 00008476,-0.00006138,-0.00006284,0.00009824,0.00000184,-0.00006724,-0.
 00000296,0.00024501,0.00009114,-0.00037511,0.00004274,-0.00089804,-0.0
 0030259,-0.00042132,0.00013739,-0.00001203,-0.00031002,-0.00111080,0.0
 0024476,-0.00184391,0.00094202,0.00017240,-0.02360831,-0.04589897,0.06
 278047,0.00294039,-0.00255140,0.00314908,-0.00016298,-0.00037275,-0.00
 021958,0.00017121,0.00003159,-0.00009898,-0.00000304,-0.00006225,-0.00
 000485,-0.00052110,-0.00005212,0.00000192,0.00041146,0.00046472,0.0004
 8134,0.00137719,0.01758214,0.01780302,-0.00001637,0.00002920,-0.000047
 66,-0.00001055,-0.00001999,-0.00001332,0.00002507,-0.00001790,0.000021
 80,-0.00006918,0.00004838,-0.00000535,-0.00404154,-0.00030861,-0.00493
 792,-0.02174212,0.00521034,0.01885965,0.00000052,0.00017989,-0.0001795
 0,0.00002517,-0.00001772,0.00000372,0.00016639,-0.00004840,0.00013102,
 -0.00000018,-0.00000600,0.00000140,0.00000877,-0.00000366,-0.00000235,
 0.00001987,0.00000027,0.00000621,-0.00000521,0.00000122,0.00000292,0.0
 2142625,-0.00198600,-0.00011236,0.00261240,-0.00004674,-0.00012475,0.0
 0014807,0.00004864,0.00007825,-0.00016057,-0.00004101,-0.00011815,0.00
 003765,0.00001911,0.00008421,0.00028888,-0.00004644,0.00040012,0.00007
 292,0.00167688,0.01919047,0.00413129,0.00001513,-0.00001882,-0.0000281
 9,-0.00001922,-0.00002741,0.00004238,-0.00000394,0.00006639,0.00002781
 ,0.00004965,0.00004538,-0.00005995,-0.00074486,-0.00684575,0.00140867,
 0.02106046,-0.33752649,-0.24273927,0.00014846,0.00020546,-0.00021865,-
 0.00000229,0.00000374,-0.00000947,-0.00003179,0.00004483,-0.00001756,0
 .00000116,0.00000640,-0.00000036,-0.00000222,0.00000167,0.00000189,-0.
 00000697,0.00000484,0.00000875,-0.00000105,-0.00000675,0.00000144,-0.0
 2008696,0.32464872,0.00347423,0.00414023,-0.00234018,-0.00002887,0.001
 03046,0.00051514,-0.00008821,-0.00011517,0.00029899,0.00000611,0.00009
 368,0.00004573,0.00004577,0.00048860,-0.00034584,0.00018572,-0.0013129
 2,-0.00077545,0.00861257,-0.03884882,-0.04151283,-0.00005568,-0.000067
 10,0.00007093,-0.00001341,0.00004390,0.00005038,0.00003009,0.00006703,
 -0.00000545,-0.00000389,-0.00005745,-0.00010391,-0.00518868,0.00023335
 ,0.00834879,0.02801432,-0.19991063,-0.20706636,-0.00019808,-0.00030499
 ,0.00025211,0.00001266,0.00003229,0.00001480,0.00014028,0.00002633,-0.
 00013816,0.00000559,0.00001909,-0.00000238,-0.00000153,0.00000578,0.00
 001614,0.00000196,-0.00001078,0.00001048,0.00000162,-0.00000474,-0.000
 01140,-0.03495258,0.23445185,0.24267848\\0.00002070,-0.00002070,-0.000
 06458,-0.00000579,0.00001948,0.00001184,0.00000035,0.00000670,0.000002
 28,0.00000600,0.00000553,-0.00001321,-0.00000009,-0.00002122,-0.000010
 12,-0.00000311,0.00000248,0.00002331,-0.00002887,-0.00001437,0.0000601
 2,0.00000306,0.00001939,0.00000219,0.00000081,0.00000247,-0.00000068,0
 .00000361,-0.00000164,-0.00001069,-0.00000723,-0.00001065,0.00001419,0
 .00000335,0.00001295,-0.00001160,0.00002114,-0.00001106,-0.00004220,-0
 .00000126,-0.00001474,-0.00000034,-0.00000270,0.00000151,0.00000494,-0
 .00000179,0.00000180,0.00000274,0.00000334,-0.00000071,-0.00000870,-0.
 00000351,-0.00000473,0.00000668,-0.00000038,0.00001020,0.00000649,0.00
 000165,-0.00000049,-0.00000385,-0.00000926,0.00001779,0.00003121\\\@
 The archive entry for this job was punched.


 E PUR SI MUOVE    -- GALILEO GALILEI
 Job cpu time:       1 days  7 hours 10 minutes 39.5 seconds.
 Elapsed time:       0 days  1 hours 33 minutes 33.5 seconds.
 File lengths (MBytes):  RWF=    794 Int=      0 D2E=      0 Chk=     48 Scr=      1
 Normal termination of Gaussian 16 at Thu Apr 27 18:07:08 2023.
