 Entering Gaussian System, Link 0=g16
 Initial command:
 /usr/local/gaussian16c01/g16/l1.exe "/scr/akj/Gau-221247.inp" -scrdir="/scr/akj/"
 Entering Link 1 = /usr/local/gaussian16c01/g16/l1.exe PID=    221248.
  
 Copyright (c) 1988-2019, Gaussian, Inc.  All Rights Reserved.
  
 This is part of the Gaussian(R) 16 program.  It is based on
 the Gaussian(R) 09 system (copyright 2009, Gaussian, Inc.),
 the Gaussian(R) 03 system (copyright 2003, Gaussian, Inc.),
 the Gaussian(R) 98 system (copyright 1998, Gaussian, Inc.),
 the Gaussian(R) 94 system (copyright 1995, Gaussian, Inc.),
 the Gaussian 92(TM) system (copyright 1992, Gaussian, Inc.),
 the Gaussian 90(TM) system (copyright 1990, Gaussian, Inc.),
 the Gaussian 88(TM) system (copyright 1988, Gaussian, Inc.),
 the Gaussian 86(TM) system (copyright 1986, Carnegie Mellon
 University), and the Gaussian 82(TM) system (copyright 1983,
 Carnegie Mellon University). Gaussian is a federally registered
 trademark of Gaussian, Inc.
  
 This software contains proprietary and confidential information,
 including trade secrets, belonging to Gaussian, Inc.
  
 This software is provided under written license and may be
 used, copied, transmitted, or stored only in accord with that
 written license.
  
 The following legend is applicable only to US Government
 contracts under FAR:
  
                    RESTRICTED RIGHTS LEGEND
  
 Use, reproduction and disclosure by the US Government is
 subject to restrictions as set forth in subparagraphs (a)
 and (c) of the Commercial Computer Software - Restricted
 Rights clause in FAR 52.227-19.
  
 Gaussian, Inc.
 340 Quinnipiac St., Bldg. 40, Wallingford CT 06492
  
  
 ---------------------------------------------------------------
 Warning -- This program may not be used in any manner that
 competes with the business of Gaussian, Inc. or will provide
 assistance to any competitor of Gaussian, Inc.  The licensee
 of this program is prohibited from giving any competitor of
 Gaussian, Inc. access to this program.  By using this program,
 the user acknowledges that Gaussian, Inc. is engaged in the
 business of creating and licensing software in the field of
 computational chemistry and represents and warrants to the
 licensee that it is not a competitor of Gaussian, Inc. and that
 it will not use this program in any manner prohibited above.
 ---------------------------------------------------------------
  

 Cite this work as:
 Gaussian 16, Revision C.01,
 M. J. Frisch, G. W. Trucks, H. B. Schlegel, G. E. Scuseria, 
 M. A. Robb, J. R. Cheeseman, G. Scalmani, V. Barone, 
 G. A. Petersson, H. Nakatsuji, X. Li, M. Caricato, A. V. Marenich, 
 J. Bloino, B. G. Janesko, R. Gomperts, B. Mennucci, H. P. Hratchian, 
 J. V. Ortiz, A. F. Izmaylov, J. L. Sonnenberg, D. Williams-Young, 
 F. Ding, F. Lipparini, F. Egidi, J. Goings, B. Peng, A. Petrone, 
 T. Henderson, D. Ranasinghe, V. G. Zakrzewski, J. Gao, N. Rega, 
 G. Zheng, W. Liang, M. Hada, M. Ehara, K. Toyota, R. Fukuda, 
 J. Hasegawa, M. Ishida, T. Nakajima, Y. Honda, O. Kitao, H. Nakai, 
 T. Vreven, K. Throssell, J. A. Montgomery, Jr., J. E. Peralta, 
 F. Ogliaro, M. J. Bearpark, J. J. Heyd, E. N. Brothers, K. N. Kudin, 
 V. N. Staroverov, T. A. Keith, R. Kobayashi, J. Normand, 
 K. Raghavachari, A. P. Rendell, J. C. Burant, S. S. Iyengar, 
 J. Tomasi, M. Cossi, J. M. Millam, M. Klene, C. Adamo, R. Cammi, 
 J. W. Ochterski, R. L. Martin, K. Morokuma, O. Farkas, 
 J. B. Foresman, and D. J. Fox, Gaussian, Inc., Wallingford CT, 2019.
 
 ******************************************
 Gaussian 16:  ES64L-G16RevC.01  3-Jul-2019
                27-Apr-2023 
 ******************************************
 %nprocshared=20
 Will use up to   20 processors via shared memory.
 %mem=10000MW
 %chk=CYH-206-A_eq00000.chk
 ------------------------------------
 # opt freq M062x/aug-cc-pvtz pop=nbo
 ------------------------------------
 1/18=20,19=15,26=3,38=1/1,3;
 2/9=110,12=2,17=6,18=5,40=1/2;
 3/5=16,6=1,7=10,11=2,25=1,30=1,71=1,74=-55/1,2,3;
 4//1;
 5/5=2,38=5/2;
 6/7=2,8=2,9=2,10=2,28=1,40=1/1,7;
 7//1,2,3,16;
 1/18=20,19=15,26=3/3(2);
 2/9=110/2;
 99//99;
 2/9=110/2;
 3/5=16,6=1,7=10,11=2,25=1,30=1,71=1,74=-55/1,2,3;
 4/5=5,16=3,69=1/1;
 5/5=2,38=5/2;
 7//1,2,3,16;
 1/18=20,19=15,26=3/3(-5);
 2/9=110/2;
 6/7=2,8=2,9=2,10=2,19=2,28=1,40=1/1,7;
 99/9=1/99;
 -----------------
 CYH-206-A_eq00000
 -----------------
 Symbolic Z-matrix:
 Charge =  0 Multiplicity = 1
 C                    -0.88628   0.09759  -0.08052 
 C                    -0.30069  -1.16415   0.00415 
 C                     1.07213  -1.27717   0.10011 
 C                     1.84912  -0.12485   0.11058 
 C                     1.27672   1.13923   0.02736 
 C                    -0.09559   1.24619  -0.06838 
 C                    -2.36076   0.26374  -0.18631 
 O                    -2.91712   1.32837  -0.26167 
 O                    -3.02307  -0.89844  -0.19045 
 N                     3.28824  -0.24458   0.20977 
 O                     3.93562   0.77849   0.21663 
 O                     3.75312  -1.36062   0.2793 
 H                    -0.924    -2.04376  -0.00606 
 H                     1.55565  -2.23987   0.16693 
 H                     1.9137    2.01041   0.03887 
 H                    -0.57843   2.20889  -0.13516 
 H                    -3.97726  -0.73737  -0.26145 
 

 GradGradGradGradGradGradGradGradGradGradGradGradGradGradGradGradGradGrad
 Berny optimization.
 Initialization pass.
                           ----------------------------
                           !    Initial Parameters    !
                           ! (Angstroms and Degrees)  !
 --------------------------                            --------------------------
 ! Name  Definition              Value          Derivative Info.                !
 --------------------------------------------------------------------------------
 ! R1    R(1,2)                  1.3936         estimate D2E/DX2                !
 ! R2    R(1,6)                  1.3945         estimate D2E/DX2                !
 ! R3    R(1,7)                  1.4876         estimate D2E/DX2                !
 ! R4    R(2,3)                  1.3808         estimate D2E/DX2                !
 ! R5    R(2,13)                 1.0781         estimate D2E/DX2                !
 ! R6    R(3,4)                  1.3898         estimate D2E/DX2                !
 ! R7    R(3,14)                 1.0794         estimate D2E/DX2                !
 ! R8    R(4,5)                  1.3901         estimate D2E/DX2                !
 ! R9    R(4,10)                 1.4475         estimate D2E/DX2                !
 ! R10   R(5,6)                  1.3798         estimate D2E/DX2                !
 ! R11   R(5,15)                 1.0793         estimate D2E/DX2                !
 ! R12   R(6,16)                 1.0791         estimate D2E/DX2                !
 ! R13   R(7,8)                  1.2036         estimate D2E/DX2                !
 ! R14   R(7,9)                  1.3377         estimate D2E/DX2                !
 ! R15   R(9,17)                 0.9703         estimate D2E/DX2                !
 ! R16   R(10,11)                1.2107         estimate D2E/DX2                !
 ! R17   R(10,12)                1.211          estimate D2E/DX2                !
 ! A1    A(2,1,6)              120.4615         estimate D2E/DX2                !
 ! A2    A(2,1,7)              121.4632         estimate D2E/DX2                !
 ! A3    A(6,1,7)              118.0753         estimate D2E/DX2                !
 ! A4    A(1,2,3)              119.7423         estimate D2E/DX2                !
 ! A5    A(1,2,13)             119.6816         estimate D2E/DX2                !
 ! A6    A(3,2,13)             120.576          estimate D2E/DX2                !
 ! A7    A(2,3,4)              119.2405         estimate D2E/DX2                !
 ! A8    A(2,3,14)             121.5121         estimate D2E/DX2                !
 ! A9    A(4,3,14)             119.2474         estimate D2E/DX2                !
 ! A10   A(3,4,5)              121.5525         estimate D2E/DX2                !
 ! A11   A(3,4,10)             119.1927         estimate D2E/DX2                !
 ! A12   A(5,4,10)             119.2547         estimate D2E/DX2                !
 ! A13   A(4,5,6)              118.9579         estimate D2E/DX2                !
 ! A14   A(4,5,15)             119.3628         estimate D2E/DX2                !
 ! A15   A(6,5,15)             121.6793         estimate D2E/DX2                !
 ! A16   A(1,6,5)              120.0453         estimate D2E/DX2                !
 ! A17   A(1,6,16)             118.7239         estimate D2E/DX2                !
 ! A18   A(5,6,16)             121.2308         estimate D2E/DX2                !
 ! A19   A(1,7,8)              124.1547         estimate D2E/DX2                !
 ! A20   A(1,7,9)              113.1998         estimate D2E/DX2                !
 ! A21   A(8,7,9)              122.6456         estimate D2E/DX2                !
 ! A22   A(7,9,17)             110.0543         estimate D2E/DX2                !
 ! A23   A(4,10,11)            117.5229         estimate D2E/DX2                !
 ! A24   A(4,10,12)            117.5049         estimate D2E/DX2                !
 ! A25   A(11,10,12)           124.9722         estimate D2E/DX2                !
 ! D1    D(6,1,2,3)             -0.0291         estimate D2E/DX2                !
 ! D2    D(6,1,2,13)           179.9824         estimate D2E/DX2                !
 ! D3    D(7,1,2,3)            179.9503         estimate D2E/DX2                !
 ! D4    D(7,1,2,13)            -0.0383         estimate D2E/DX2                !
 ! D5    D(2,1,6,5)              0.0276         estimate D2E/DX2                !
 ! D6    D(2,1,6,16)          -179.9845         estimate D2E/DX2                !
 ! D7    D(7,1,6,5)           -179.9524         estimate D2E/DX2                !
 ! D8    D(7,1,6,16)             0.0355         estimate D2E/DX2                !
 ! D9    D(2,1,7,8)            179.9825         estimate D2E/DX2                !
 ! D10   D(2,1,7,9)             -0.0345         estimate D2E/DX2                !
 ! D11   D(6,1,7,8)             -0.0377         estimate D2E/DX2                !
 ! D12   D(6,1,7,9)            179.9453         estimate D2E/DX2                !
 ! D13   D(1,2,3,4)             -0.0004         estimate D2E/DX2                !
 ! D14   D(1,2,3,14)          -179.9849         estimate D2E/DX2                !
 ! D15   D(13,2,3,4)           179.988          estimate D2E/DX2                !
 ! D16   D(13,2,3,14)            0.0035         estimate D2E/DX2                !
 ! D17   D(2,3,4,5)              0.032          estimate D2E/DX2                !
 ! D18   D(2,3,4,10)          -179.9342         estimate D2E/DX2                !
 ! D19   D(14,3,4,5)          -179.9831         estimate D2E/DX2                !
 ! D20   D(14,3,4,10)            0.0506         estimate D2E/DX2                !
 ! D21   D(3,4,5,6)             -0.0335         estimate D2E/DX2                !
 ! D22   D(3,4,5,15)           179.9819         estimate D2E/DX2                !
 ! D23   D(10,4,5,6)           179.9327         estimate D2E/DX2                !
 ! D24   D(10,4,5,15)           -0.0519         estimate D2E/DX2                !
 ! D25   D(3,4,10,11)         -179.9805         estimate D2E/DX2                !
 ! D26   D(3,4,10,12)            0.0349         estimate D2E/DX2                !
 ! D27   D(5,4,10,11)            0.0525         estimate D2E/DX2                !
 ! D28   D(5,4,10,12)         -179.9321         estimate D2E/DX2                !
 ! D29   D(4,5,6,1)              0.0034         estimate D2E/DX2                !
 ! D30   D(4,5,6,16)          -179.9842         estimate D2E/DX2                !
 ! D31   D(15,5,6,1)           179.9877         estimate D2E/DX2                !
 ! D32   D(15,5,6,16)            0.0001         estimate D2E/DX2                !
 ! D33   D(1,7,9,17)          -179.9587         estimate D2E/DX2                !
 ! D34   D(8,7,9,17)             0.0247         estimate D2E/DX2                !
 --------------------------------------------------------------------------------
 Trust Radius=3.00D-01 FncErr=1.00D-07 GrdErr=1.00D-06 EigMax=2.50D+02 EigMin=1.00D-04
 Number of steps in this run=     86 maximum allowed number of steps=    102.
 GradGradGradGradGradGradGradGradGradGradGradGradGradGradGradGradGradGrad

                          Input orientation:                          
 ---------------------------------------------------------------------
 Center     Atomic      Atomic             Coordinates (Angstroms)
 Number     Number       Type             X           Y           Z
 ---------------------------------------------------------------------
      1          6           0       -0.886277    0.097587   -0.080524
      2          6           0       -0.300694   -1.164150    0.004148
      3          6           0        1.072132   -1.277168    0.100113
      4          6           0        1.849115   -0.124852    0.110582
      5          6           0        1.276717    1.139229    0.027363
      6          6           0       -0.095589    1.246188   -0.068383
      7          6           0       -2.360762    0.263745   -0.186314
      8          8           0       -2.917122    1.328375   -0.261670
      9          8           0       -3.023065   -0.898437   -0.190452
     10          7           0        3.288245   -0.244583    0.209772
     11          8           0        3.935616    0.778490    0.216630
     12          8           0        3.753119   -1.360624    0.279300
     13          1           0       -0.923997   -2.043756   -0.006059
     14          1           0        1.555654   -2.239870    0.166933
     15          1           0        1.913703    2.010406    0.038871
     16          1           0       -0.578432    2.208889   -0.135160
     17          1           0       -3.977264   -0.737368   -0.261450
 ---------------------------------------------------------------------
                    Distance matrix (angstroms):
                    1          2          3          4          5
     1  C    0.000000
     2  C    1.393577   0.000000
     3  C    2.399572   1.380809   0.000000
     4  C    2.751067   2.390220   1.389837   0.000000
     5  C    2.403164   2.791831   2.426134   1.390132   0.000000
     6  C    1.394496   2.420136   2.785550   2.386138   1.379794
     7  C    1.487584   2.513770   3.773753   4.238186   3.747450
     8  O    2.381593   3.623401   4.778482   4.996745   4.208040
     9  O    2.360088   2.742221   4.122925   4.942388   4.763156
    10  N    4.198569   3.710575   2.447328   1.447504   2.448357
    11  O    4.878789   4.665332   3.526875   2.276128   2.689926
    12  O    4.876459   4.067888   2.688265   2.276144   3.527791
    13  H    2.142969   1.078108   2.140902   3.374308   3.869839
    14  H    3.389390   2.151674   1.079376   2.136023   3.393464
    15  H    3.393084   3.870732   3.394133   2.137438   1.079274
    16  H    2.134327   3.387321   3.864235   3.376348   2.147595
    17  H    3.206881   3.710775   5.091022   5.870288   5.586532
                    6          7          8          9         10
     6  C    0.000000
     7  C    2.471863   0.000000
     8  O    2.829340   1.203600   0.000000
     9  O    3.631038   1.337658   2.230467   0.000000
    10  N    3.708113   5.685645   6.418958   6.357699   0.000000
    11  O    4.068242   6.330221   6.891384   7.169453   1.210708
    12  O    4.661428   6.343100   7.212176   6.808154   1.210988
    13  H    3.393210   2.724214   3.925449   2.398300   4.585476
    14  H    3.864528   4.661672   5.737752   4.784542   2.642891
    15  H    2.152391   4.623049   4.887982   5.734600   2.646421
    16  H    1.079069   2.638731   2.502155   3.954082   4.592352
    17  H    4.363389   1.902880   2.321894   0.970298   7.297431
                   11         12         13         14         15
    11  O    0.000000
    12  O    2.147799   0.000000
    13  H    5.624101   4.735348   0.000000
    14  H    3.844110   2.369504   2.493403   0.000000
    15  H    2.374310   3.847740   4.948817   4.267252   0.000000
    16  H    4.748309   5.628103   4.268615   4.943384   2.506077
    17  H    8.070939   7.774296   3.330812   5.749279   6.507223
                   16         17
    16  H    0.000000
    17  H    4.499826   0.000000
 Stoichiometry    C7H5NO4
 Framework group  C1[X(C7H5NO4)]
 Deg. of freedom    45
 Full point group                 C1      NOp   1
 Largest Abelian subgroup         C1      NOp   1
 Largest concise Abelian subgroup C1      NOp   1
                         Standard orientation:                         
 ---------------------------------------------------------------------
 Center     Atomic      Atomic             Coordinates (Angstroms)
 Number     Number       Type             X           Y           Z
 ---------------------------------------------------------------------
      1          6           0       -1.340763    0.037715    0.000834
      2          6           0       -0.666684   -1.181987    0.001562
      3          6           0        0.713986   -1.201622    0.001601
      4          6           0        1.410064    0.001342    0.000900
      5          6           0        0.749049    1.224259    0.000823
      6          6           0       -0.630678    1.237881    0.000754
      7          6           0       -2.826890    0.103526   -0.000336
      8          8           0       -3.457900    1.128455   -0.000694
      9          8           0       -3.407721   -1.101448   -0.001327
     10          7           0        2.857403   -0.020448   -0.000510
     11          8           0        3.432975    1.044696   -0.000727
     12          8           0        3.400433   -1.102857   -0.001672
     13          1           0       -1.228241   -2.102298    0.001904
     14          1           0        1.265011   -2.129750    0.001914
     15          1           0        1.324885    2.137081    0.000566
     16          1           0       -1.181024    2.166056    0.000438
     17          1           0       -4.373252   -1.005396   -0.002721
 ---------------------------------------------------------------------
 Rotational constants (GHZ):           3.0325977           0.4792297           0.4138334
 Standard basis: Aug-CC-pVTZ (5D, 7F)
 There are   785 symmetry adapted cartesian basis functions of A   symmetry.
 There are   667 symmetry adapted basis functions of A   symmetry.
   667 basis functions,   999 primitive gaussians,   785 cartesian basis functions
    43 alpha electrons       43 beta electrons
       nuclear repulsion energy       656.1672410242 Hartrees.
 NAtoms=   17 NActive=   17 NUniq=   17 SFac= 1.00D+00 NAtFMM=   60 NAOKFM=F Big=F
 Integral buffers will be    131072 words long.
 Raffenetti 2 integral format.
 Two-electron integral symmetry is turned on.
 One-electron integrals computed using PRISM.
 NBasis=   667 RedAO= T EigKep=  1.18D-06  NBF=   667
 NBsUse=   665 1.00D-06 EigRej=  5.92D-07 NBFU=   665
 ExpMin= 2.53D-02 ExpMax= 1.53D+04 ExpMxC= 5.22D+02 IAcc=3 IRadAn=         5 AccDes= 0.00D+00
 Harris functional with IExCor= 1009 and IRadAn=       5 diagonalized for initial guess.
 HarFok:  IExCor= 1009 AccDes= 0.00D+00 IRadAn=         5 IDoV= 1 UseB2=F ITyADJ=14
 ICtDFT=  3500011 ScaDFX=  1.000000  1.000000  1.000000  1.000000
 FoFCou: FMM=F IPFlag=           0 FMFlag=      100000 FMFlg1=           0
         NFxFlg=           0 DoJE=T BraDBF=F KetDBF=T FulRan=T
         wScrn=  0.000000 ICntrl=       500 IOpCl=  0 I1Cent=   200000004 NGrid=           0
         NMat0=    1 NMatS0=      1 NMatT0=    0 NMatD0=    1 NMtDS0=    0 NMtDT0=    0
 Petite list used in FoFCou.
 Requested convergence on RMS density matrix=1.00D-08 within 128 cycles.
 Requested convergence on MAX density matrix=1.00D-06.
 Requested convergence on             energy=1.00D-06.
 No special actions if energy rises.
 SCF Done:  E(RM062X) =  -625.328659312     A.U. after   14 cycles
            NFock= 14  Conv=0.69D-08     -V/T= 2.0049

 **********************************************************************

            Population analysis using the SCF Density.

 **********************************************************************

 Orbital symmetries:
       Occupied  (A) (A) (A) (A) (A) (A) (A) (A) (A) (A) (A) (A)
                 (A) (A) (A) (A) (A) (A) (A) (A) (A) (A) (A) (A)
                 (A) (A) (A) (A) (A) (A) (A) (A) (A) (A) (A) (A)
                 (A) (A) (A) (A) (A) (A) (A)
       Virtual   (A) (A) (A) (A) (A) (A) (A) (A) (A) (A) (A) (A)
                 (A) (A) (A) (A) (A) (A) (A) (A) (A) (A) (A) (A)
                 (A) (A) (A) (A) (A) (A) (A) (A) (A) (A) (A) (A)
                 (A) (A) (A) (A) (A) (A) (A) (A) (A) (A) (A) (A)
                 (A) (A) (A) (A) (A) (A) (A) (A) (A) (A) (A) (A)
                 (A) (A) (A) (A) (A) (A) (A) (A) (A) (A) (A) (A)
                 (A) (A) (A) (A) (A) (A) (A) (A) (A) (A) (A) (A)
                 (A) (A) (A) (A) (A) (A) (A) (A) (A) (A) (A) (A)
                 (A) (A) (A) (A) (A) (A) (A) (A) (A) (A) (A) (A)
                 (A) (A) (A) (A) (A) (A) (A) (A) (A) (A) (A) (A)
                 (A) (A) (A) (A) (A) (A) (A) (A) (A) (A) (A) (A)
                 (A) (A) (A) (A) (A) (A) (A) (A) (A) (A) (A) (A)
                 (A) (A) (A) (A) (A) (A) (A) (A) (A) (A) (A) (A)
                 (A) (A) (A) (A) (A) (A) (A) (A) (A) (A) (A) (A)
                 (A) (A) (A) (A) (A) (A) (A) (A) (A) (A) (A) (A)
                 (A) (A) (A) (A) (A) (A) (A) (A) (A) (A) (A) (A)
                 (A) (A) (A) (A) (A) (A) (A) (A) (A) (A) (A) (A)
                 (A) (A) (A) (A) (A) (A) (A) (A) (A) (A) (A) (A)
                 (A) (A) (A) (A) (A) (A) (A) (A) (A) (A) (A) (A)
                 (A) (A) (A) (A) (A) (A) (A) (A) (A) (A) (A) (A)
                 (A) (A) (A) (A) (A) (A) (A) (A) (A) (A) (A) (A)
                 (A) (A) (A) (A) (A) (A) (A) (A) (A) (A) (A) (A)
                 (A) (A) (A) (A) (A) (A) (A) (A) (A) (A) (A) (A)
                 (A) (A) (A) (A) (A) (A) (A) (A) (A) (A) (A) (A)
                 (A) (A) (A) (A) (A) (A) (A) (A) (A) (A) (A) (A)
                 (A) (A) (A) (A) (A) (A) (A) (A) (A) (A) (A) (A)
                 (A) (A) (A) (A) (A) (A) (A) (A) (A) (A) (A) (A)
                 (A) (A) (A) (A) (A) (A) (A) (A) (A) (A) (A) (A)
                 (A) (A) (A) (A) (A) (A) (A) (A) (A) (A) (A) (A)
                 (A) (A) (A) (A) (A) (A) (A) (A) (A) (A) (A) (A)
                 (A) (A) (A) (A) (A) (A) (A) (A) (A) (A) (A) (A)
                 (A) (A) (A) (A) (A) (A) (A) (A) (A) (A) (A) (A)
                 (A) (A) (A) (A) (A) (A) (A) (A) (A) (A) (A) (A)
                 (A) (A) (A) (A) (A) (A) (A) (A) (A) (A) (A) (A)
                 (A) (A) (A) (A) (A) (A) (A) (A) (A) (A) (A) (A)
                 (A) (A) (A) (A) (A) (A) (A) (A) (A) (A) (A) (A)
                 (A) (A) (A) (A) (A) (A) (A) (A) (A) (A) (A) (A)
                 (A) (A) (A) (A) (A) (A) (A) (A) (A) (A) (A) (A)
                 (A) (A) (A) (A) (A) (A) (A) (A) (A) (A) (A) (A)
                 (A) (A) (A) (A) (A) (A) (A) (A) (A) (A) (A) (A)
                 (A) (A) (A) (A) (A) (A) (A) (A) (A) (A) (A) (A)
                 (A) (A) (A) (A) (A) (A) (A) (A) (A) (A) (A) (A)
                 (A) (A) (A) (A) (A) (A) (A) (A) (A) (A) (A) (A)
                 (A) (A) (A) (A) (A) (A) (A) (A) (A) (A) (A) (A)
                 (A) (A) (A) (A) (A) (A) (A) (A) (A) (A) (A) (A)
                 (A) (A) (A) (A) (A) (A) (A) (A) (A) (A) (A) (A)
                 (A) (A) (A) (A) (A) (A) (A) (A) (A) (A) (A) (A)
                 (A) (A) (A) (A) (A) (A) (A) (A) (A) (A) (A) (A)
                 (A) (A) (A) (A) (A) (A) (A) (A) (A) (A) (A) (A)
                 (A) (A) (A) (A) (A) (A) (A) (A) (A) (A) (A) (A)
                 (A) (A) (A) (A) (A) (A) (A) (A) (A) (A) (A) (A)
                 (A) (A) (A) (A) (A) (A) (A) (A) (A) (A)
 The electronic state is 1-A.
 Alpha  occ. eigenvalues --  -19.69814 -19.67697 -19.67680 -19.64031 -15.01556
 Alpha  occ. eigenvalues --  -10.70485 -10.62835 -10.59743 -10.58932 -10.58879
 Alpha  occ. eigenvalues --  -10.58727 -10.58530  -1.39119  -1.26581  -1.20281
 Alpha  occ. eigenvalues --   -1.16783  -1.02377  -0.94274  -0.89344  -0.84375
 Alpha  occ. eigenvalues --   -0.75856  -0.73792  -0.69609  -0.67299  -0.64855
 Alpha  occ. eigenvalues --   -0.63434  -0.62197  -0.60358  -0.56771  -0.56197
 Alpha  occ. eigenvalues --   -0.55286  -0.53532  -0.52453  -0.48367  -0.48301
 Alpha  occ. eigenvalues --   -0.44557  -0.42597  -0.40899  -0.39896  -0.39870
 Alpha  occ. eigenvalues --   -0.38566  -0.35773  -0.35281
 Alpha virt. eigenvalues --   -0.08433  -0.01756  -0.01559  -0.00894  -0.00128
 Alpha virt. eigenvalues --    0.00405   0.02182   0.02226   0.02643   0.03129
 Alpha virt. eigenvalues --    0.05134   0.05353   0.05485   0.06026   0.06509
 Alpha virt. eigenvalues --    0.06902   0.07218   0.07705   0.08443   0.09082
 Alpha virt. eigenvalues --    0.09248   0.09437   0.09567   0.10111   0.10159
 Alpha virt. eigenvalues --    0.10311   0.10501   0.11914   0.12221   0.13206
 Alpha virt. eigenvalues --    0.13862   0.14428   0.14689   0.14899   0.14980
 Alpha virt. eigenvalues --    0.15949   0.17014   0.17971   0.18629   0.18863
 Alpha virt. eigenvalues --    0.18955   0.19008   0.19591   0.19847   0.20455
 Alpha virt. eigenvalues --    0.20766   0.21680   0.21779   0.22269   0.22485
 Alpha virt. eigenvalues --    0.22718   0.23199   0.23237   0.23852   0.23893
 Alpha virt. eigenvalues --    0.24018   0.25344   0.25731   0.26274   0.26420
 Alpha virt. eigenvalues --    0.26972   0.28153   0.28290   0.28506   0.28793
 Alpha virt. eigenvalues --    0.29703   0.29813   0.30062   0.30921   0.31828
 Alpha virt. eigenvalues --    0.32718   0.32742   0.33345   0.33358   0.33802
 Alpha virt. eigenvalues --    0.34285   0.35191   0.35323   0.35789   0.35870
 Alpha virt. eigenvalues --    0.36197   0.36630   0.37374   0.37855   0.38304
 Alpha virt. eigenvalues --    0.38387   0.38810   0.39511   0.40764   0.40990
 Alpha virt. eigenvalues --    0.41267   0.41639   0.42672   0.43134   0.43482
 Alpha virt. eigenvalues --    0.44410   0.44451   0.45540   0.46458   0.46728
 Alpha virt. eigenvalues --    0.47400   0.48505   0.49143   0.49567   0.49953
 Alpha virt. eigenvalues --    0.50530   0.51520   0.51600   0.52691   0.53954
 Alpha virt. eigenvalues --    0.54545   0.54646   0.56101   0.56372   0.57053
 Alpha virt. eigenvalues --    0.57253   0.57935   0.58889   0.60129   0.60555
 Alpha virt. eigenvalues --    0.60855   0.61714   0.62380   0.63032   0.63794
 Alpha virt. eigenvalues --    0.64473   0.64548   0.65556   0.66164   0.66304
 Alpha virt. eigenvalues --    0.66723   0.67905   0.68888   0.69932   0.70522
 Alpha virt. eigenvalues --    0.71114   0.71906   0.71943   0.73340   0.73399
 Alpha virt. eigenvalues --    0.73623   0.74399   0.75084   0.75559   0.76069
 Alpha virt. eigenvalues --    0.76439   0.76967   0.77056   0.77320   0.77327
 Alpha virt. eigenvalues --    0.78169   0.78746   0.79470   0.79903   0.80290
 Alpha virt. eigenvalues --    0.80776   0.81892   0.81997   0.83010   0.83334
 Alpha virt. eigenvalues --    0.83639   0.84994   0.85148   0.85755   0.86304
 Alpha virt. eigenvalues --    0.86956   0.88646   0.88725   0.88948   0.89465
 Alpha virt. eigenvalues --    0.90310   0.90960   0.91184   0.92865   0.93284
 Alpha virt. eigenvalues --    0.93907   0.94159   0.94967   0.95571   0.96099
 Alpha virt. eigenvalues --    0.96644   0.96887   0.97231   0.97426   0.98739
 Alpha virt. eigenvalues --    0.99090   0.99457   0.99720   1.00701   1.01185
 Alpha virt. eigenvalues --    1.02111   1.02567   1.03023   1.03080   1.03622
 Alpha virt. eigenvalues --    1.04419   1.05097   1.06164   1.06654   1.07836
 Alpha virt. eigenvalues --    1.09139   1.09841   1.10298   1.10855   1.11108
 Alpha virt. eigenvalues --    1.12098   1.13362   1.14849   1.15713   1.16235
 Alpha virt. eigenvalues --    1.16270   1.17686   1.17899   1.18592   1.19880
 Alpha virt. eigenvalues --    1.20785   1.20922   1.22011   1.22168   1.24066
 Alpha virt. eigenvalues --    1.24172   1.24482   1.26323   1.26629   1.27905
 Alpha virt. eigenvalues --    1.28749   1.31418   1.31436   1.32134   1.32284
 Alpha virt. eigenvalues --    1.33282   1.33918   1.34108   1.36406   1.37487
 Alpha virt. eigenvalues --    1.39578   1.40177   1.40889   1.43073   1.43311
 Alpha virt. eigenvalues --    1.44575   1.45274   1.45676   1.46596   1.46804
 Alpha virt. eigenvalues --    1.48079   1.48598   1.49310   1.51347   1.51748
 Alpha virt. eigenvalues --    1.51841   1.52221   1.52779   1.55142   1.55295
 Alpha virt. eigenvalues --    1.55497   1.57584   1.58281   1.59201   1.60919
 Alpha virt. eigenvalues --    1.61569   1.62454   1.62978   1.64960   1.65389
 Alpha virt. eigenvalues --    1.65835   1.67369   1.67614   1.68355   1.68557
 Alpha virt. eigenvalues --    1.70377   1.72415   1.72912   1.74849   1.75611
 Alpha virt. eigenvalues --    1.76878   1.77258   1.77790   1.78465   1.81466
 Alpha virt. eigenvalues --    1.83107   1.83381   1.84184   1.84663   1.85379
 Alpha virt. eigenvalues --    1.85826   1.86848   1.86967   1.87796   1.89228
 Alpha virt. eigenvalues --    1.89570   1.90121   1.91789   1.92113   1.92924
 Alpha virt. eigenvalues --    1.94846   1.96552   1.98077   1.98159   2.00220
 Alpha virt. eigenvalues --    2.02975   2.03048   2.04094   2.04445   2.04828
 Alpha virt. eigenvalues --    2.08518   2.08705   2.09274   2.10233   2.10433
 Alpha virt. eigenvalues --    2.11077   2.11442   2.13028   2.14545   2.14903
 Alpha virt. eigenvalues --    2.15397   2.16596   2.17991   2.19278   2.19348
 Alpha virt. eigenvalues --    2.21001   2.23402   2.24382   2.25205   2.27529
 Alpha virt. eigenvalues --    2.27564   2.28252   2.30689   2.31092   2.32820
 Alpha virt. eigenvalues --    2.32924   2.35685   2.35786   2.36793   2.37987
 Alpha virt. eigenvalues --    2.38547   2.38977   2.39801   2.39837   2.40942
 Alpha virt. eigenvalues --    2.43773   2.45137   2.46320   2.46983   2.47238
 Alpha virt. eigenvalues --    2.48648   2.48961   2.49831   2.51364   2.53827
 Alpha virt. eigenvalues --    2.54861   2.54910   2.55631   2.59098   2.60446
 Alpha virt. eigenvalues --    2.62917   2.65495   2.67721   2.68957   2.69845
 Alpha virt. eigenvalues --    2.70224   2.70585   2.72731   2.74207   2.74935
 Alpha virt. eigenvalues --    2.76737   2.78934   2.79103   2.81644   2.83175
 Alpha virt. eigenvalues --    2.85855   2.87138   2.89703   2.91139   2.92454
 Alpha virt. eigenvalues --    2.93228   2.94930   2.96201   2.96766   2.97017
 Alpha virt. eigenvalues --    2.99081   3.00398   3.01548   3.03375   3.06677
 Alpha virt. eigenvalues --    3.07447   3.09371   3.10016   3.10549   3.10821
 Alpha virt. eigenvalues --    3.11392   3.12979   3.13819   3.14940   3.15815
 Alpha virt. eigenvalues --    3.19403   3.19666   3.20709   3.22137   3.22835
 Alpha virt. eigenvalues --    3.24353   3.24763   3.25734   3.27728   3.29098
 Alpha virt. eigenvalues --    3.29115   3.30150   3.30627   3.31501   3.33656
 Alpha virt. eigenvalues --    3.35084   3.38175   3.40215   3.40860   3.42514
 Alpha virt. eigenvalues --    3.44135   3.45833   3.46397   3.48266   3.49666
 Alpha virt. eigenvalues --    3.49846   3.51333   3.53257   3.53715   3.54112
 Alpha virt. eigenvalues --    3.54707   3.56209   3.57413   3.58990   3.59440
 Alpha virt. eigenvalues --    3.61109   3.63563   3.63596   3.63842   3.65322
 Alpha virt. eigenvalues --    3.65569   3.67898   3.73205   3.73525   3.73803
 Alpha virt. eigenvalues --    3.75881   3.77221   3.77711   3.78356   3.81811
 Alpha virt. eigenvalues --    3.83351   3.84780   3.84956   3.85394   3.87736
 Alpha virt. eigenvalues --    3.88085   3.89840   3.91272   3.91512   3.92245
 Alpha virt. eigenvalues --    3.92305   3.94078   3.96492   3.97395   3.99037
 Alpha virt. eigenvalues --    3.99671   4.00461   4.02528   4.03312   4.05321
 Alpha virt. eigenvalues --    4.07019   4.07449   4.09205   4.10150   4.11153
 Alpha virt. eigenvalues --    4.13182   4.16266   4.17889   4.19388   4.19803
 Alpha virt. eigenvalues --    4.22070   4.23028   4.24180   4.27405   4.28519
 Alpha virt. eigenvalues --    4.31240   4.31684   4.32521   4.33041   4.38578
 Alpha virt. eigenvalues --    4.39804   4.42118   4.45091   4.47195   4.48862
 Alpha virt. eigenvalues --    4.50404   4.51787   4.54053   4.54413   4.55001
 Alpha virt. eigenvalues --    4.55413   4.57114   4.59568   4.62971   4.64430
 Alpha virt. eigenvalues --    4.66395   4.67058   4.68231   4.69379   4.72949
 Alpha virt. eigenvalues --    4.73407   4.75205   4.75496   4.77292   4.77621
 Alpha virt. eigenvalues --    4.79024   4.82815   4.85772   4.86100   4.88857
 Alpha virt. eigenvalues --    4.89145   4.92835   4.93357   4.95193   4.98812
 Alpha virt. eigenvalues --    4.99884   5.00132   5.04579   5.05532   5.06737
 Alpha virt. eigenvalues --    5.08822   5.11502   5.14439   5.16059   5.20138
 Alpha virt. eigenvalues --    5.23187   5.25996   5.27976   5.30054   5.32783
 Alpha virt. eigenvalues --    5.32952   5.36293   5.42242   5.42940   5.48803
 Alpha virt. eigenvalues --    5.53926   5.54646   5.67042   5.68024   5.69174
 Alpha virt. eigenvalues --    5.73214   5.76753   5.81246   5.85548   5.89545
 Alpha virt. eigenvalues --    5.91173   6.00058   6.03667   6.07477   6.09701
 Alpha virt. eigenvalues --    6.14336   6.17194   6.19889   6.20116   6.22412
 Alpha virt. eigenvalues --    6.28353   6.32286   6.33518   6.34674   6.34877
 Alpha virt. eigenvalues --    6.35018   6.36291   6.37949   6.40482   6.42167
 Alpha virt. eigenvalues --    6.47126   6.54380   6.55597   6.56854   6.58030
 Alpha virt. eigenvalues --    6.59889   6.68826   6.70785   6.71232   6.74097
 Alpha virt. eigenvalues --    6.74120   6.80062   6.80570   6.82306   6.85159
 Alpha virt. eigenvalues --    6.86160   6.86244   6.88547   6.91517   6.92392
 Alpha virt. eigenvalues --    6.92617   7.04156   7.06195   7.08688   7.11178
 Alpha virt. eigenvalues --    7.13319   7.13519   7.22232   7.27540   7.30475
 Alpha virt. eigenvalues --    7.34188   7.42148   7.46212   7.50756   7.56979
 Alpha virt. eigenvalues --    7.69466   7.80936   7.82434   8.00601   8.04490
 Alpha virt. eigenvalues --   14.90715  15.00704  15.45469  16.24162  16.43252
 Alpha virt. eigenvalues --   16.63539  17.58838  18.19238  19.03929  19.24657
 Alpha virt. eigenvalues --   19.52125  20.00769
          Condensed to atoms (all electrons):
               1          2          3          4          5          6
     1  C    6.392974  -0.448100   0.097204  -0.312383   0.196713  -0.485453
     2  C   -0.448100   7.784410  -0.350495  -0.021893  -0.412595   0.207723
     3  C    0.097204  -0.350495   7.574116  -0.334103   0.041750  -0.419764
     4  C   -0.312383  -0.021893  -0.334103   6.716184  -0.387805   0.023628
     5  C    0.196713  -0.412595   0.041750  -0.387805   7.365419  -0.339639
     6  C   -0.485453   0.207723  -0.419764   0.023628  -0.339639   7.883051
     7  C   -0.311150  -0.427843   0.113409   0.048955   0.001238  -0.217229
     8  O   -0.075374   0.014523  -0.009293  -0.010470   0.003346   0.020764
     9  O   -0.127900  -0.004127   0.013838  -0.015478   0.004091   0.012621
    10  N   -0.065266   0.160097  -0.251244  -0.499691  -0.216022   0.145201
    11  O    0.020373  -0.023492  -0.023389   0.214130   0.024484  -0.079981
    12  O    0.021113  -0.087342   0.017171   0.241714  -0.027042  -0.018145
    13  H   -0.323587   0.339298  -0.558414   0.134868  -0.028917   0.100043
    14  H    0.039027  -0.359822   0.537751  -0.367875   0.020963  -0.010731
    15  H    0.063625  -0.009743  -0.013179  -0.317116   0.600138  -0.436693
    16  H   -0.388390   0.099980  -0.001742   0.108785  -0.527154   0.433363
    17  H    0.034434  -0.017200  -0.002834   0.003880  -0.001329  -0.021656
               7          8          9         10         11         12
     1  C   -0.311150  -0.075374  -0.127900  -0.065266   0.020373   0.021113
     2  C   -0.427843   0.014523  -0.004127   0.160097  -0.023492  -0.087342
     3  C    0.113409  -0.009293   0.013838  -0.251244  -0.023389   0.017171
     4  C    0.048955  -0.010470  -0.015478  -0.499691   0.214130   0.241714
     5  C    0.001238   0.003346   0.004091  -0.216022   0.024484  -0.027042
     6  C   -0.217229   0.020764   0.012621   0.145201  -0.079981  -0.018145
     7  C    6.156502  -0.132814   0.136527  -0.016020   0.000944   0.001391
     8  O   -0.132814   9.287200  -0.080001   0.001375  -0.000086  -0.000006
     9  O    0.136527  -0.080001   8.516093   0.001531   0.000003  -0.000005
    10  N   -0.016020   0.001375   0.001531   7.579099  -0.299220  -0.314897
    11  O    0.000944  -0.000086   0.000003  -0.299220   9.075024  -0.200955
    12  O    0.001391  -0.000006  -0.000005  -0.314897  -0.200955   9.075578
    13  H    0.115465  -0.006166  -0.056413  -0.020014   0.000925  -0.000104
    14  H   -0.021442   0.000843  -0.000997   0.073223  -0.008079  -0.037082
    15  H   -0.011520  -0.003375  -0.000438   0.023919  -0.029653  -0.005035
    16  H    0.095444   0.006165  -0.001204  -0.010719   0.000211   0.000745
    17  H    0.063098  -0.108327   0.149730  -0.000407   0.000027   0.000050
              13         14         15         16         17
     1  C   -0.323587   0.039027   0.063625  -0.388390   0.034434
     2  C    0.339298  -0.359822  -0.009743   0.099980  -0.017200
     3  C   -0.558414   0.537751  -0.013179  -0.001742  -0.002834
     4  C    0.134868  -0.367875  -0.317116   0.108785   0.003880
     5  C   -0.028917   0.020963   0.600138  -0.527154  -0.001329
     6  C    0.100043  -0.010731  -0.436693   0.433363  -0.021656
     7  C    0.115465  -0.021442  -0.011520   0.095444   0.063098
     8  O   -0.006166   0.000843  -0.003375   0.006165  -0.108327
     9  O   -0.056413  -0.000997  -0.000438  -0.001204   0.149730
    10  N   -0.020014   0.073223   0.023919  -0.010719  -0.000407
    11  O    0.000925  -0.008079  -0.029653   0.000211   0.000027
    12  O   -0.000104  -0.037082  -0.005035   0.000745   0.000050
    13  H    1.378427  -0.167700   0.000895  -0.014393   0.003353
    14  H   -0.167700   0.921362  -0.002878   0.001893  -0.000461
    15  H    0.000895  -0.002878   0.922718  -0.174815   0.000072
    16  H   -0.014393   0.001893  -0.174815   1.327556   0.000782
    17  H    0.003353  -0.000461   0.000072   0.000782   0.595210
 Mulliken charges:
               1
     1  C    1.672140
     2  C   -0.443381
     3  C   -0.430783
     4  C    0.774670
     5  C   -0.317638
     6  C   -0.797104
     7  C    0.405044
     8  O   -0.908304
     9  O   -0.547871
    10  N    0.709055
    11  O   -0.671266
    12  O   -0.667150
    13  H    0.102431
    14  H    0.382004
    15  H    0.393080
    16  H    0.043496
    17  H    0.301578
 Sum of Mulliken charges =   0.00000
 Mulliken charges with hydrogens summed into heavy atoms:
               1
     1  C    1.672140
     2  C   -0.340949
     3  C   -0.048779
     4  C    0.774670
     5  C    0.075441
     6  C   -0.753608
     7  C    0.405044
     8  O   -0.908304
     9  O   -0.246293
    10  N    0.709055
    11  O   -0.671266
    12  O   -0.667150
 Electronic spatial extent (au):  <R**2>=           2419.1070
 Charge=              0.0000 electrons
 Dipole moment (field-independent basis, Debye):
    X=             -3.4449    Y=             -1.4724    Z=              0.0023  Tot=              3.7464
 Quadrupole moment (field-independent basis, Debye-Ang):
   XX=            -79.8786   YY=            -65.9123   ZZ=            -67.9910
   XY=              7.9920   XZ=              0.0204   YZ=             -0.0021
 Traceless Quadrupole moment (field-independent basis, Debye-Ang):
   XX=             -8.6180   YY=              5.3483   ZZ=              3.2697
   XY=              7.9920   XZ=              0.0204   YZ=             -0.0021
 Octapole moment (field-independent basis, Debye-Ang**2):
  XXX=           -104.4476  YYY=             -1.9238  ZZZ=             -0.0319  XYY=              1.3964
  XXY=            -36.4552  XXZ=             -0.0194  XZZ=              2.7452  YZZ=             -0.1425
  YYZ=              0.0081  XYZ=             -0.0253
 Hexadecapole moment (field-independent basis, Debye-Ang**3):
 XXXX=          -2423.1216 YYYY=           -445.2708 ZZZZ=            -67.2346 XXXY=            176.2622
 XXXZ=              0.4578 YYYX=             13.1410 YYYZ=             -0.0116 ZZZX=             -0.0027
 ZZZY=              0.0093 XXYY=           -530.5185 XXZZ=           -399.6109 YYZZ=            -97.0189
 XXYZ=              0.0678 YYXZ=              0.0210 ZZXY=              0.2679
 N-N= 6.561672410242D+02 E-N=-2.775042257157D+03  KE= 6.222740487275D+02
 ******************************Gaussian NBO Version 3.1******************************
             N A T U R A L   A T O M I C   O R B I T A L   A N D
          N A T U R A L   B O N D   O R B I T A L   A N A L Y S I S
 ******************************Gaussian NBO Version 3.1******************************
       /RESON  / : Allow strongly delocalized NBO set

 Analyzing the SCF density

 Job title: CYH-206-A_eq00000                                               

 Storage needed:   1337455 in NPA,   1781892 in NBO (********** available)
 GSVD:  LWork=       38095 too small for GESVD, short by      771452 words or      771452 for optimal perf.
 Remove ICRem=  235 ICRemI=   12 L=0 PNAO number  235 atom    6 type  51 NPNAO=  667
   due to symmetric orthogonalization 2, value= 0.00D+00.
 GSVD:  LWork=       39897 too small for GESVD, short by      766055 words or      766055 for optimal perf.
 Remove ICRem=  287 ICRemI=   12 L=1 PNAO number  291 atom    7 type 153 NPNAO=  666
   due to symmetric orthogonalization 2, value= 0.00D+00.
 Remove ICRem=  287 ICRemI=   12 L=1 PNAO number  287 atom    7 type 152 NPNAO=  665
   due to symmetric orthogonalization 2, value= 0.00D+00.
 Remove ICRem=  287 ICRemI=   12 L=1 PNAO number  283 atom    7 type 151 NPNAO=  664
   due to symmetric orthogonalization 2, value= 0.00D+00.
 GSVD:  LWork=       45279 too small for GESVD, short by      749936 words or      749936 for optimal perf.
 Remove ICRem=   13 ICRemI=   12 L=1 PNAO number   17 atom    1 type 153 NPNAO=  663
   due to symmetric orthogonalization 2, value= 0.00D+00.
 Remove ICRem=   13 ICRemI=   12 L=1 PNAO number   13 atom    1 type 152 NPNAO=  662
   due to symmetric orthogonalization 2, value= 0.00D+00.
 Remove ICRem=   13 ICRemI=   12 L=1 PNAO number    9 atom    1 type 151 NPNAO=  661
   due to symmetric orthogonalization 2, value= 0.00D+00.
 GSVD:  LWork=       50625 too small for GESVD, short by      733925 words or      733925 for optimal perf.

 Computed number of electrons   85.99949262 does not match expected value of    86.


 NATURAL POPULATIONS:  Natural atomic orbital occupancies 
                                                          
   NAO  Atom  No  lang   Type(AO)    Occupancy      Energy
 ----------------------------------------------------------
     1    C    1  S      Cor( 1S)     1.99904     -10.44590
     2    C    1  S      Val( 2S)     0.94273      -0.22154
     3    C    1  S      Ryd( 3S)     0.00129       1.55969
     4    C    1  S      Ryd( 4S)     0.00041       2.50380
     5    C    1  S      Ryd( 5S)     0.00005       3.46676
     6    C    1  px     Val( 2p)     1.02179      -0.07050
     7    C    1  px     Ryd( 4p)     0.00430       1.94301
     8    C    1  px     Ryd( 3p)     0.00038       1.00265
     9    C    1  py     Val( 2p)     1.04243      -0.05562
    10    C    1  py     Ryd( 4p)     0.00429       1.61859
    11    C    1  py     Ryd( 3p)     0.00019       1.32036
    12    C    1  pz     Val( 2p)     0.99022      -0.12379
    13    C    1  pz     Ryd( 4p)     0.00294       0.94444
    14    C    1  pz     Ryd( 3p)     0.00070       0.80492
    15    C    1  dxy    Ryd( 3d)     0.00264       2.40504
    16    C    1  dxy    Ryd( 4d)     0.00023       3.65165
    17    C    1  dxy    Ryd( 5d)     0.00008       4.75858
    18    C    1  dxz    Ryd( 3d)     0.00056       1.46339
    19    C    1  dxz    Ryd( 5d)     0.00010       2.89631
    20    C    1  dxz    Ryd( 4d)     0.00014       2.14947
    21    C    1  dyz    Ryd( 3d)     0.00043       1.23785
    22    C    1  dyz    Ryd( 5d)     0.00009       2.83995
    23    C    1  dyz    Ryd( 4d)     0.00008       2.39662
    24    C    1  dx2y2  Ryd( 3d)     0.00137       3.25333
    25    C    1  dx2y2  Ryd( 4d)     0.00033       3.78065
    26    C    1  dx2y2  Ryd( 5d)     0.00007       4.05662
    27    C    1  dz2    Ryd( 3d)     0.00073       1.54518
    28    C    1  dz2    Ryd( 4d)     0.00020       3.83734
    29    C    1  dz2    Ryd( 5d)     0.00005       4.39890
    30    C    1  f(0)   Ryd( 4f)     0.00457       1.34173
    31    C    1  f(0)   Ryd( 5f)     0.00001       3.57678
    32    C    1  f(C1)  Ryd( 4f)     0.00593       1.61888
    33    C    1  f(C1)  Ryd( 5f)     0.00004       3.89618
    34    C    1  f(S1)  Ryd( 4f)     0.00659       1.61054
    35    C    1  f(S1)  Ryd( 5f)     0.00004       3.81555
    36    C    1  f(C2)  Ryd( 4f)     0.00043       1.29074
    37    C    1  f(C2)  Ryd( 5f)     0.00003       3.57930
    38    C    1  f(S2)  Ryd( 4f)     0.00057       1.20979
    39    C    1  f(S2)  Ryd( 5f)     0.00003       3.58716
    40    C    1  f(C3)  Ryd( 4f)     0.00127       2.35827
    41    C    1  f(C3)  Ryd( 5f)     0.00016       4.18093
    42    C    1  f(S3)  Ryd( 4f)     0.00291       2.12035
    43    C    1  f(S3)  Ryd( 5f)     0.00014       4.46467
 
    44    C    2  S      Cor( 1S)     1.99929     -10.42938
    45    C    2  S      Val( 2S)     0.96997      -0.24108
    46    C    2  S      Ryd( 3S)     0.00428       1.60017
    47    C    2  S      Ryd( 5S)     0.00019       3.15496
    48    C    2  S      Ryd( 4S)     0.00003       2.33231
    49    C    2  px     Val( 2p)     1.08644      -0.10008
    50    C    2  px     Ryd( 3p)     0.01125       1.46750
    51    C    2  px     Ryd( 5p)     0.00023       2.68678
    52    C    2  px     Ryd( 4p)     0.00008       1.57219
    53    C    2  py     Val( 2p)     1.14941      -0.10750
    54    C    2  py     Ryd( 4p)     0.00503       1.46348
    55    C    2  py     Ryd( 5p)     0.00035       2.56238
    56    C    2  py     Ryd( 3p)     0.00013       1.21322
    57    C    2  pz     Val( 2p)     0.96462      -0.15069
    58    C    2  pz     Ryd( 4p)     0.00164       0.76925
    59    C    2  pz     Ryd( 5p)     0.00042       1.91610
    60    C    2  pz     Ryd( 3p)     0.00018       0.73774
    61    C    2  dxy    Ryd( 3d)     0.00280       2.06359
    62    C    2  dxy    Ryd( 5d)     0.00038       3.88118
    63    C    2  dxy    Ryd( 4d)     0.00011       3.41896
    64    C    2  dxz    Ryd( 3d)     0.00037       0.96428
    65    C    2  dxz    Ryd( 5d)     0.00016       3.18199
    66    C    2  dxz    Ryd( 4d)     0.00018       1.99831
    67    C    2  dyz    Ryd( 3d)     0.00258       0.88947
    68    C    2  dyz    Ryd( 5d)     0.00023       3.21333
    69    C    2  dyz    Ryd( 4d)     0.00007       1.84227
    70    C    2  dx2y2  Ryd( 4d)     0.00413       3.21492
    71    C    2  dx2y2  Ryd( 5d)     0.00060       3.88731
    72    C    2  dx2y2  Ryd( 3d)     0.00009       2.95244
    73    C    2  dz2    Ryd( 3d)     0.00180       1.07195
    74    C    2  dz2    Ryd( 5d)     0.00028       4.34153
    75    C    2  dz2    Ryd( 4d)     0.00006       4.17628
    76    C    2  f(0)   Ryd( 4f)     0.00022       1.30626
    77    C    2  f(0)   Ryd( 5f)     0.00015       3.46527
    78    C    2  f(C1)  Ryd( 4f)     0.00075       1.80302
    79    C    2  f(C1)  Ryd( 5f)     0.00020       3.70612
    80    C    2  f(S1)  Ryd( 4f)     0.00066       1.60031
    81    C    2  f(S1)  Ryd( 5f)     0.00008       3.59409
    82    C    2  f(C2)  Ryd( 4f)     0.00017       1.34373
    83    C    2  f(C2)  Ryd( 5f)     0.00002       3.49425
    84    C    2  f(S2)  Ryd( 4f)     0.00035       1.34399
    85    C    2  f(S2)  Ryd( 5f)     0.00004       3.51653
    86    C    2  f(C3)  Ryd( 4f)     0.00106       2.51700
    87    C    2  f(C3)  Ryd( 5f)     0.00014       4.07834
    88    C    2  f(S3)  Ryd( 4f)     0.00229       1.71419
    89    C    2  f(S3)  Ryd( 5f)     0.00008       4.23257
 
    90    C    3  S      Cor( 1S)     1.99916     -10.43235
    91    C    3  S      Val( 2S)     0.97233      -0.24573
    92    C    3  S      Ryd( 3S)     0.00126       1.65728
    93    C    3  S      Ryd( 5S)     0.00020       3.16447
    94    C    3  S      Ryd( 4S)     0.00002       1.84320
    95    C    3  px     Val( 2p)     1.09003      -0.10407
    96    C    3  px     Ryd( 4p)     0.00387       1.79304
    97    C    3  px     Ryd( 5p)     0.00013       2.41058
    98    C    3  px     Ryd( 3p)     0.00004       1.26394
    99    C    3  py     Val( 2p)     1.14569      -0.11166
   100    C    3  py     Ryd( 4p)     0.00418       1.63599
   101    C    3  py     Ryd( 5p)     0.00008       2.36464
   102    C    3  py     Ryd( 3p)     0.00006       1.08343
   103    C    3  pz     Val( 2p)     0.95291      -0.15248
   104    C    3  pz     Ryd( 4p)     0.00066       0.97671
   105    C    3  pz     Ryd( 5p)     0.00003       1.77329
   106    C    3  pz     Ryd( 3p)     0.00004       0.60401
   107    C    3  dxy    Ryd( 3d)     0.00162       2.70978
   108    C    3  dxy    Ryd( 4d)     0.00024       3.46532
   109    C    3  dxy    Ryd( 5d)     0.00009       3.51377
   110    C    3  dxz    Ryd( 3d)     0.00088       1.31113
   111    C    3  dxz    Ryd( 5d)     0.00012       2.61596
   112    C    3  dxz    Ryd( 4d)     0.00006       2.33961
   113    C    3  dyz    Ryd( 3d)     0.00025       1.23370
   114    C    3  dyz    Ryd( 5d)     0.00012       2.66964
   115    C    3  dyz    Ryd( 4d)     0.00012       2.15254
   116    C    3  dx2y2  Ryd( 4d)     0.00207       3.32083
   117    C    3  dx2y2  Ryd( 5d)     0.00033       3.42557
   118    C    3  dx2y2  Ryd( 3d)     0.00010       2.99428
   119    C    3  dz2    Ryd( 3d)     0.00103       1.51260
   120    C    3  dz2    Ryd( 5d)     0.00013       3.95103
   121    C    3  dz2    Ryd( 4d)     0.00004       3.93113
   122    C    3  f(0)   Ryd( 5f)     0.00013       3.47611
   123    C    3  f(0)   Ryd( 4f)     0.00008       2.15649
   124    C    3  f(C1)  Ryd( 5f)     0.00027       3.79112
   125    C    3  f(C1)  Ryd( 4f)     0.00005       3.17260
   126    C    3  f(S1)  Ryd( 5f)     0.00023       3.66685
   127    C    3  f(S1)  Ryd( 4f)     0.00002       2.88479
   128    C    3  f(C2)  Ryd( 5f)     0.00001       3.55845
   129    C    3  f(C2)  Ryd( 4f)     0.00002       2.42383
   130    C    3  f(S2)  Ryd( 5f)     0.00003       3.61192
   131    C    3  f(S2)  Ryd( 4f)     0.00008       2.25562
   132    C    3  f(C3)  Ryd( 4f)     0.00017       4.17298
   133    C    3  f(C3)  Ryd( 5f)     0.00004       6.33602
   134    C    3  f(S3)  Ryd( 5f)     0.00012       4.37570
   135    C    3  f(S3)  Ryd( 4f)     0.00008       3.90321
 
   136    C    4  S      Cor( 1S)     1.99884     -10.48569
   137    C    4  S      Val( 2S)     0.90723      -0.22259
   138    C    4  S      Ryd( 3S)     0.00093       1.80617
   139    C    4  S      Ryd( 5S)     0.00012       2.46124
   140    C    4  S      Ryd( 4S)     0.00002       2.42719
   141    C    4  px     Val( 2p)     0.85981      -0.09514
   142    C    4  px     Ryd( 4p)     0.00579       1.56941
   143    C    4  px     Ryd( 5p)     0.00008       2.36541
   144    C    4  px     Ryd( 3p)     0.00004       1.18461
   145    C    4  py     Val( 2p)     1.10102      -0.13108
   146    C    4  py     Ryd( 4p)     0.00668       1.94424
   147    C    4  py     Ryd( 5p)     0.00010       2.12725
   148    C    4  py     Ryd( 3p)     0.00003       0.81647
   149    C    4  pz     Val( 2p)     1.05613      -0.17771
   150    C    4  pz     Ryd( 4p)     0.00102       0.84396
   151    C    4  pz     Ryd( 5p)     0.00022       1.79332
   152    C    4  pz     Ryd( 3p)     0.00003       0.47904
   153    C    4  dxy    Ryd( 3d)     0.00173       1.99376
   154    C    4  dxy    Ryd( 4d)     0.00036       4.05974
   155    C    4  dxy    Ryd( 5d)     0.00007       4.62808
   156    C    4  dxz    Ryd( 3d)     0.00023       0.98505
   157    C    4  dxz    Ryd( 5d)     0.00015       2.99676
   158    C    4  dxz    Ryd( 4d)     0.00009       2.67723
   159    C    4  dyz    Ryd( 3d)     0.00104       0.89356
   160    C    4  dyz    Ryd( 5d)     0.00026       2.83381
   161    C    4  dyz    Ryd( 4d)     0.00003       2.63674
   162    C    4  dx2y2  Ryd( 3d)     0.00190       1.80027
   163    C    4  dx2y2  Ryd( 5d)     0.00044       4.00246
   164    C    4  dx2y2  Ryd( 4d)     0.00007       3.46343
   165    C    4  dz2    Ryd( 3d)     0.00099       1.12796
   166    C    4  dz2    Ryd( 4d)     0.00015       4.35332
   167    C    4  dz2    Ryd( 5d)     0.00010       4.42877
   168    C    4  f(0)   Ryd( 4f)     0.00036       1.43452
   169    C    4  f(0)   Ryd( 5f)     0.00018       3.52863
   170    C    4  f(C1)  Ryd( 4f)     0.00019       1.74916
   171    C    4  f(C1)  Ryd( 5f)     0.00024       3.69647
   172    C    4  f(S1)  Ryd( 4f)     0.00056       1.82804
   173    C    4  f(S1)  Ryd( 5f)     0.00026       3.66168
   174    C    4  f(C2)  Ryd( 4f)     0.00048       1.27792
   175    C    4  f(C2)  Ryd( 5f)     0.00001       3.59239
   176    C    4  f(S2)  Ryd( 4f)     0.00033       1.35311
   177    C    4  f(S2)  Ryd( 5f)     0.00002       3.55003
   178    C    4  f(C3)  Ryd( 4f)     0.00092       2.11630
   179    C    4  f(C3)  Ryd( 5f)     0.00005       4.37586
   180    C    4  f(S3)  Ryd( 4f)     0.00250       2.12985
   181    C    4  f(S3)  Ryd( 5f)     0.00016       4.57178
 
   182    C    5  S      Cor( 1S)     1.99919     -10.43140
   183    C    5  S      Val( 2S)     0.97471      -0.24391
   184    C    5  S      Ryd( 3S)     0.00285       1.54692
   185    C    5  S      Ryd( 5S)     0.00037       3.42254
   186    C    5  S      Ryd( 4S)     0.00003       2.09797
   187    C    5  px     Val( 2p)     1.10050      -0.10310
   188    C    5  px     Ryd( 4p)     0.00468       1.51186
   189    C    5  px     Ryd( 5p)     0.00076       2.86293
   190    C    5  px     Ryd( 3p)     0.00005       1.15233
   191    C    5  py     Val( 2p)     1.14171      -0.10979
   192    C    5  py     Ryd( 4p)     0.00407       1.54548
   193    C    5  py     Ryd( 5p)     0.00016       2.43134
   194    C    5  py     Ryd( 3p)     0.00004       0.92244
   195    C    5  pz     Val( 2p)     0.95222      -0.15113
   196    C    5  pz     Ryd( 4p)     0.00070       0.89458
   197    C    5  pz     Ryd( 5p)     0.00014       1.86118
   198    C    5  pz     Ryd( 3p)     0.00004       0.53168
   199    C    5  dxy    Ryd( 3d)     0.00186       2.15876
   200    C    5  dxy    Ryd( 4d)     0.00026       3.43629
   201    C    5  dxy    Ryd( 5d)     0.00010       3.51736
   202    C    5  dxz    Ryd( 3d)     0.00066       1.16389
   203    C    5  dxz    Ryd( 5d)     0.00010       2.70171
   204    C    5  dxz    Ryd( 4d)     0.00002       2.29244
   205    C    5  dyz    Ryd( 3d)     0.00026       1.08899
   206    C    5  dyz    Ryd( 5d)     0.00018       2.79182
   207    C    5  dyz    Ryd( 4d)     0.00008       2.07289
   208    C    5  dx2y2  Ryd( 3d)     0.00210       2.63893
   209    C    5  dx2y2  Ryd( 5d)     0.00051       3.48690
   210    C    5  dx2y2  Ryd( 4d)     0.00009       3.02222
   211    C    5  dz2    Ryd( 3d)     0.00097       1.18350
   212    C    5  dz2    Ryd( 5d)     0.00017       4.12885
   213    C    5  dz2    Ryd( 4d)     0.00004       3.69683
   214    C    5  f(0)   Ryd( 5f)     0.00011       3.43910
   215    C    5  f(0)   Ryd( 4f)     0.00004       2.13207
   216    C    5  f(C1)  Ryd( 5f)     0.00024       3.75972
   217    C    5  f(C1)  Ryd( 4f)     0.00004       3.15853
   218    C    5  f(S1)  Ryd( 5f)     0.00021       3.64563
   219    C    5  f(S1)  Ryd( 4f)     0.00004       2.68975
   220    C    5  f(C2)  Ryd( 5f)     0.00001       3.52795
   221    C    5  f(C2)  Ryd( 4f)     0.00002       2.36520
   222    C    5  f(S2)  Ryd( 5f)     0.00002       3.59021
   223    C    5  f(S2)  Ryd( 4f)     0.00003       2.15212
   224    C    5  f(C3)  Ryd( 4f)     0.00017       4.17862
   225    C    5  f(C3)  Ryd( 5f)     0.00004       5.88246
   226    C    5  f(S3)  Ryd( 5f)     0.00008       4.25262
   227    C    5  f(S3)  Ryd( 4f)     0.00010       3.70395
 
   228    C    6  S      Cor( 1S)     1.99889     -10.43253
   229    C    6  S      Val( 2S)     0.94618      -0.15407
   230    C    6  S      Ryd( 4S)     0.00199       4.30251
   231    C    6  S      Ryd( 3S)     0.00003       1.85013
   232    C    6  px     Val( 2p)     1.08248      -0.09594
   233    C    6  px     Ryd( 3p)     0.01124       1.41221
   234    C    6  px     Ryd( 5p)     0.00016       2.26959
   235    C    6  px     Ryd( 4p)     0.00008       1.87443
   236    C    6  py     Val( 2p)     1.15309      -0.10534
   237    C    6  py     Ryd( 3p)     0.00544       1.42317
   238    C    6  py     Ryd( 5p)     0.00023       2.53837
   239    C    6  py     Ryd( 4p)     0.00010       1.49236
   240    C    6  pz     Val( 2p)     0.95245      -0.14746
   241    C    6  pz     Ryd( 3p)     0.00152       0.77928
   242    C    6  pz     Ryd( 5p)     0.00035       1.73683
   243    C    6  pz     Ryd( 4p)     0.00015       0.95113
   244    C    6  dxy    Ryd( 3d)     0.00238       2.11879
   245    C    6  dxy    Ryd( 4d)     0.00033       3.35334
   246    C    6  dxy    Ryd( 5d)     0.00020       3.48698
   247    C    6  dxz    Ryd( 3d)     0.00077       1.01801
   248    C    6  dxz    Ryd( 4d)     0.00008       2.42482
   249    C    6  dxz    Ryd( 5d)     0.00016       2.63679
   250    C    6  dyz    Ryd( 3d)     0.00246       0.92277
   251    C    6  dyz    Ryd( 5d)     0.00051       2.50130
   252    C    6  dyz    Ryd( 4d)     0.00004       2.50029
   253    C    6  dx2y2  Ryd( 3d)     0.00364       3.04461
   254    C    6  dx2y2  Ryd( 4d)     0.00052       3.21821
   255    C    6  dx2y2  Ryd( 5d)     0.00026       3.27368
   256    C    6  dz2    Ryd( 3d)     0.00563       1.19536
   257    C    6  dz2    Ryd( 5d)     0.00069       3.55618
   258    C    6  dz2    Ryd( 4d)     0.00014       2.86049
   259    C    6  f(0)   Ryd( 4f)     0.00039       1.89991
   260    C    6  f(0)   Ryd( 5f)     0.00012       3.48723
   261    C    6  f(C1)  Ryd( 4f)     0.00003       3.14047
   262    C    6  f(C1)  Ryd( 5f)     0.00024       3.74929
   263    C    6  f(S1)  Ryd( 4f)     0.00006       2.71698
   264    C    6  f(S1)  Ryd( 5f)     0.00012       3.67831
   265    C    6  f(C2)  Ryd( 4f)     0.00004       2.29597
   266    C    6  f(C2)  Ryd( 5f)     0.00001       3.57100
   267    C    6  f(S2)  Ryd( 4f)     0.00016       2.11145
   268    C    6  f(S2)  Ryd( 5f)     0.00001       3.61650
   269    C    6  f(C3)  Ryd( 5f)     0.00029       5.58178
   270    C    6  f(C3)  Ryd( 4f)     0.00016       4.23390
   271    C    6  f(S3)  Ryd( 4f)     0.00008       3.66930
   272    C    6  f(S3)  Ryd( 5f)     0.00003       4.27549
 
   273    C    7  S      Cor( 1S)     1.99946     -10.58138
   274    C    7  S      Val( 2S)     0.79473      -0.16299
   275    C    7  S      Ryd( 4S)     0.00430       1.66959
   276    C    7  S      Ryd( 5S)     0.00074       2.32956
   277    C    7  S      Ryd( 3S)     0.00009       1.47027
   278    C    7  px     Val( 2p)     0.91264      -0.08598
   279    C    7  px     Ryd( 3p)     0.00595       1.46193
   280    C    7  px     Ryd( 4p)     0.00013       2.05682
   281    C    7  py     Val( 2p)     0.71490      -0.02087
   282    C    7  py     Ryd( 3p)     0.01563       1.43739
   283    C    7  py     Ryd( 4p)     0.00012       2.42385
   284    C    7  pz     Val( 2p)     0.73764      -0.14745
   285    C    7  pz     Ryd( 3p)     0.00106       1.02064
   286    C    7  pz     Ryd( 4p)     0.00008       1.36759
   287    C    7  dxy    Ryd( 3d)     0.00098       2.28007
   288    C    7  dxy    Ryd( 4d)     0.00152       3.01411
   289    C    7  dxy    Ryd( 5d)     0.00011       4.23734
   290    C    7  dxz    Ryd( 3d)     0.00117       1.73800
   291    C    7  dxz    Ryd( 4d)     0.00113       2.09534
   292    C    7  dxz    Ryd( 5d)     0.00012       2.52510
   293    C    7  dyz    Ryd( 3d)     0.00128       1.81103
   294    C    7  dyz    Ryd( 4d)     0.00039       2.28508
   295    C    7  dyz    Ryd( 5d)     0.00006       2.86839
   296    C    7  dx2y2  Ryd( 3d)     0.00165       2.23267
   297    C    7  dx2y2  Ryd( 4d)     0.00044       2.81198
   298    C    7  dx2y2  Ryd( 5d)     0.00005       3.99716
   299    C    7  dz2    Ryd( 3d)     0.00033       2.24464
   300    C    7  dz2    Ryd( 4d)     0.00027       2.88613
   301    C    7  dz2    Ryd( 5d)     0.00008       3.14650
   302    C    7  f(0)   Ryd( 4f)     0.00019       2.18062
   303    C    7  f(0)   Ryd( 5f)     0.00006       3.51387
   304    C    7  f(C1)  Ryd( 4f)     0.00006       2.99489
   305    C    7  f(C1)  Ryd( 5f)     0.00005       3.58126
   306    C    7  f(S1)  Ryd( 4f)     0.00011       3.22016
   307    C    7  f(S1)  Ryd( 5f)     0.00003       3.70346
   308    C    7  f(C2)  Ryd( 4f)     0.00004       2.52968
   309    C    7  f(C2)  Ryd( 5f)     0.00001       3.46760
   310    C    7  f(S2)  Ryd( 4f)     0.00001       2.74847
   311    C    7  f(S2)  Ryd( 5f)     0.00001       3.57075
   312    C    7  f(C3)  Ryd( 5f)     0.00008       7.91294
   313    C    7  f(C3)  Ryd( 4f)     0.00007       4.37974
   314    C    7  f(S3)  Ryd( 4f)     0.00002       4.11707
   315    C    7  f(S3)  Ryd( 5f)     0.00009       4.55061
 
   316    O    8  S      Cor( 1S)     1.99978     -19.35001
   317    O    8  S      Val( 2S)     1.70204      -1.02846
   318    O    8  S      Ryd( 4S)     0.00025       2.71562
   319    O    8  S      Ryd( 3S)     0.00019       1.38811
   320    O    8  S      Ryd( 5S)     0.00002       9.04338
   321    O    8  px     Val( 2p)     1.76931      -0.36423
   322    O    8  px     Ryd( 4p)     0.00251       1.24005
   323    O    8  px     Ryd( 3p)     0.00033       0.57620
   324    O    8  px     Ryd( 5p)     0.00005       4.90079
   325    O    8  py     Val( 2p)     1.63976      -0.36812
   326    O    8  py     Ryd( 4p)     0.00152       1.43697
   327    O    8  py     Ryd( 3p)     0.00039       0.53918
   328    O    8  py     Ryd( 5p)     0.00009       5.53997
   329    O    8  pz     Val( 2p)     1.45049      -0.31305
   330    O    8  pz     Ryd( 4p)     0.00056       0.97783
   331    O    8  pz     Ryd( 3p)     0.00041       0.36410
   332    O    8  pz     Ryd( 5p)     0.00001       4.27741
   333    O    8  dxy    Ryd( 3d)     0.00901       1.95784
   334    O    8  dxy    Ryd( 4d)     0.00010       3.64822
   335    O    8  dxy    Ryd( 5d)     0.00002       6.19889
   336    O    8  dxz    Ryd( 3d)     0.00208       1.39225
   337    O    8  dxz    Ryd( 4d)     0.00004       2.07505
   338    O    8  dxz    Ryd( 5d)     0.00002       6.02372
   339    O    8  dyz    Ryd( 3d)     0.00463       1.46871
   340    O    8  dyz    Ryd( 4d)     0.00007       2.15340
   341    O    8  dyz    Ryd( 5d)     0.00001       5.95530
   342    O    8  dx2y2  Ryd( 3d)     0.00627       1.80598
   343    O    8  dx2y2  Ryd( 4d)     0.00016       2.64564
   344    O    8  dx2y2  Ryd( 5d)     0.00002       6.05843
   345    O    8  dz2    Ryd( 3d)     0.00319       1.58585
   346    O    8  dz2    Ryd( 4d)     0.00006       2.86907
   347    O    8  dz2    Ryd( 5d)     0.00001       6.13316
   348    O    8  f(0)   Ryd( 4f)     0.00018       3.10313
   349    O    8  f(0)   Ryd( 5f)     0.00001       5.45648
   350    O    8  f(C1)  Ryd( 4f)     0.00007       3.25605
   351    O    8  f(C1)  Ryd( 5f)     0.00001       5.55530
   352    O    8  f(S1)  Ryd( 4f)     0.00012       3.54029
   353    O    8  f(S1)  Ryd( 5f)     0.00001       5.71168
   354    O    8  f(C2)  Ryd( 4f)     0.00007       3.06111
   355    O    8  f(C2)  Ryd( 5f)     0.00000       5.67097
   356    O    8  f(S2)  Ryd( 4f)     0.00036       3.14764
   357    O    8  f(S2)  Ryd( 5f)     0.00001       5.56832
   358    O    8  f(C3)  Ryd( 4f)     0.00032       4.10577
   359    O    8  f(C3)  Ryd( 5f)     0.00002       6.00525
   360    O    8  f(S3)  Ryd( 4f)     0.00048       3.56981
   361    O    8  f(S3)  Ryd( 5f)     0.00002       5.89606
 
   362    O    9  S      Cor( 1S)     1.99978     -19.47948
   363    O    9  S      Val( 2S)     1.67267      -1.06095
   364    O    9  S      Ryd( 4S)     0.00105       2.22211
   365    O    9  S      Ryd( 3S)     0.00014       1.48276
   366    O    9  S      Ryd( 5S)     0.00002       9.85345
   367    O    9  px     Val( 2p)     1.52033      -0.39363
   368    O    9  px     Ryd( 4p)     0.00165       1.21279
   369    O    9  px     Ryd( 3p)     0.00025       0.73795
   370    O    9  px     Ryd( 5p)     0.00004       5.20177
   371    O    9  py     Val( 2p)     1.65086      -0.42871
   372    O    9  py     Ryd( 4p)     0.00124       1.08272
   373    O    9  py     Ryd( 3p)     0.00020       0.60603
   374    O    9  py     Ryd( 5p)     0.00013       5.11736
   375    O    9  pz     Val( 2p)     1.83328      -0.43745
   376    O    9  pz     Ryd( 4p)     0.00127       0.85347
   377    O    9  pz     Ryd( 3p)     0.00049       0.42154
   378    O    9  pz     Ryd( 5p)     0.00000       4.17796
   379    O    9  dxy    Ryd( 3d)     0.00477       1.76007
   380    O    9  dxy    Ryd( 4d)     0.00015       2.52216
   381    O    9  dxy    Ryd( 5d)     0.00003       6.72163
   382    O    9  dxz    Ryd( 3d)     0.00066       1.16684
   383    O    9  dxz    Ryd( 4d)     0.00008       1.75298
   384    O    9  dxz    Ryd( 5d)     0.00001       6.56981
   385    O    9  dyz    Ryd( 3d)     0.00398       1.30027
   386    O    9  dyz    Ryd( 4d)     0.00007       1.59800
   387    O    9  dyz    Ryd( 5d)     0.00004       6.54278
   388    O    9  dx2y2  Ryd( 3d)     0.00565       1.94966
   389    O    9  dx2y2  Ryd( 4d)     0.00011       2.09081
   390    O    9  dx2y2  Ryd( 5d)     0.00008       6.97838
   391    O    9  dz2    Ryd( 3d)     0.00327       1.49753
   392    O    9  dz2    Ryd( 4d)     0.00010       2.22981
   393    O    9  dz2    Ryd( 5d)     0.00001       6.78252
   394    O    9  f(0)   Ryd( 4f)     0.00059       2.74612
   395    O    9  f(0)   Ryd( 5f)     0.00001       5.93605
   396    O    9  f(C1)  Ryd( 4f)     0.00023       3.31442
   397    O    9  f(C1)  Ryd( 5f)     0.00002       6.21579
   398    O    9  f(S1)  Ryd( 4f)     0.00021       3.30175
   399    O    9  f(S1)  Ryd( 5f)     0.00001       6.08338
   400    O    9  f(C2)  Ryd( 4f)     0.00001       2.83082
   401    O    9  f(C2)  Ryd( 5f)     0.00000       6.07721
   402    O    9  f(S2)  Ryd( 4f)     0.00012       2.77574
   403    O    9  f(S2)  Ryd( 5f)     0.00001       5.96382
   404    O    9  f(C3)  Ryd( 4f)     0.00015       4.38679
   405    O    9  f(C3)  Ryd( 5f)     0.00008       6.56023
   406    O    9  f(S3)  Ryd( 4f)     0.00008       3.73129
   407    O    9  f(S3)  Ryd( 5f)     0.00001       6.42598
 
   408    N   10  S      Cor( 1S)     1.99957     -14.86249
   409    N   10  S      Val( 2S)     1.09280      -0.58373
   410    N   10  S      Ryd( 3S)     0.00514       1.64363
   411    N   10  S      Ryd( 4S)     0.00015       2.70722
   412    N   10  S      Ryd( 5S)     0.00012       4.63872
   413    N   10  px     Val( 2p)     1.19231      -0.34028
   414    N   10  px     Ryd( 4p)     0.00811       1.52632
   415    N   10  px     Ryd( 3p)     0.00035       1.28872
   416    N   10  px     Ryd( 5p)     0.00003       2.88121
   417    N   10  py     Val( 2p)     1.00772      -0.29156
   418    N   10  py     Ryd( 4p)     0.01491       1.68540
   419    N   10  py     Ryd( 3p)     0.00009       1.49230
   420    N   10  py     Ryd( 5p)     0.00006       3.09244
   421    N   10  pz     Val( 2p)     1.12667      -0.35168
   422    N   10  pz     Ryd( 3p)     0.00111       1.01988
   423    N   10  pz     Ryd( 4p)     0.00006       1.06777
   424    N   10  pz     Ryd( 5p)     0.00011       2.00536
   425    N   10  dxy    Ryd( 4d)     0.00251       2.66295
   426    N   10  dxy    Ryd( 5d)     0.00045       5.48807
   427    N   10  dxy    Ryd( 3d)     0.00003       2.54463
   428    N   10  dxz    Ryd( 4d)     0.00093       1.53272
   429    N   10  dxz    Ryd( 5d)     0.00006       4.61362
   430    N   10  dxz    Ryd( 3d)     0.00003       1.38124
   431    N   10  dyz    Ryd( 4d)     0.00721       1.94131
   432    N   10  dyz    Ryd( 5d)     0.00002       4.63684
   433    N   10  dyz    Ryd( 3d)     0.00002       1.40343
   434    N   10  dx2y2  Ryd( 4d)     0.00599       2.54569
   435    N   10  dx2y2  Ryd( 5d)     0.00003       5.38912
   436    N   10  dx2y2  Ryd( 3d)     0.00004       2.16894
   437    N   10  dz2    Ryd( 3d)     0.00061       2.04448
   438    N   10  dz2    Ryd( 5d)     0.00028       5.43470
   439    N   10  dz2    Ryd( 4d)     0.00005       3.91985
   440    N   10  f(0)   Ryd( 4f)     0.00001       1.83735
   441    N   10  f(0)   Ryd( 5f)     0.00022       4.81356
   442    N   10  f(C1)  Ryd( 4f)     0.00005       1.94824
   443    N   10  f(C1)  Ryd( 5f)     0.00023       4.82182
   444    N   10  f(S1)  Ryd( 4f)     0.00014       2.09307
   445    N   10  f(S1)  Ryd( 5f)     0.00024       4.88354
   446    N   10  f(C2)  Ryd( 4f)     0.00019       1.74095
   447    N   10  f(C2)  Ryd( 5f)     0.00003       4.75931
   448    N   10  f(S2)  Ryd( 4f)     0.00028       1.87998
   449    N   10  f(S2)  Ryd( 5f)     0.00006       4.95459
   450    N   10  f(C3)  Ryd( 4f)     0.00038       3.02552
   451    N   10  f(C3)  Ryd( 5f)     0.00018       5.54468
   452    N   10  f(S3)  Ryd( 4f)     0.00094       2.48460
   453    N   10  f(S3)  Ryd( 5f)     0.00013       5.44337
 
   454    O   11  S      Cor( 1S)     1.99982     -19.46239
   455    O   11  S      Val( 2S)     1.74180      -1.01242
   456    O   11  S      Ryd( 4S)     0.00041       4.04360
   457    O   11  S      Ryd( 3S)     0.00016       2.76553
   458    O   11  S      Ryd( 5S)     0.00002       8.06510
   459    O   11  px     Val( 2p)     1.75876      -0.37190
   460    O   11  px     Ryd( 4p)     0.00114       1.25538
   461    O   11  px     Ryd( 3p)     0.00009       0.87789
   462    O   11  px     Ryd( 5p)     0.00005       4.97452
   463    O   11  py     Val( 2p)     1.40935      -0.31867
   464    O   11  py     Ryd( 4p)     0.00114       1.71546
   465    O   11  py     Ryd( 3p)     0.00016       0.91864
   466    O   11  py     Ryd( 5p)     0.00005       5.38644
   467    O   11  pz     Val( 2p)     1.44967      -0.33473
   468    O   11  pz     Ryd( 4p)     0.00142       0.97279
   469    O   11  pz     Ryd( 3p)     0.00004       0.63379
   470    O   11  pz     Ryd( 5p)     0.00001       4.19566
   471    O   11  dxy    Ryd( 3d)     0.00403       2.26254
   472    O   11  dxy    Ryd( 4d)     0.00007       2.60735
   473    O   11  dxy    Ryd( 5d)     0.00003       6.78288
   474    O   11  dxz    Ryd( 4d)     0.00163       1.71049
   475    O   11  dxz    Ryd( 3d)     0.00001       1.67968
   476    O   11  dxz    Ryd( 5d)     0.00001       6.34571
   477    O   11  dyz    Ryd( 4d)     0.00332       1.94353
   478    O   11  dyz    Ryd( 3d)     0.00005       1.60874
   479    O   11  dyz    Ryd( 5d)     0.00001       6.44557
   480    O   11  dx2y2  Ryd( 4d)     0.00422       2.24598
   481    O   11  dx2y2  Ryd( 3d)     0.00013       2.00900
   482    O   11  dx2y2  Ryd( 5d)     0.00003       6.71887
   483    O   11  dz2    Ryd( 3d)     0.00162       1.90308
   484    O   11  dz2    Ryd( 4d)     0.00004       2.04218
   485    O   11  dz2    Ryd( 5d)     0.00001       6.58075
   486    O   11  f(0)   Ryd( 5f)     0.00003       4.67289
   487    O   11  f(0)   Ryd( 4f)     0.00000       4.12658
   488    O   11  f(C1)  Ryd( 5f)     0.00004       4.71629
   489    O   11  f(C1)  Ryd( 4f)     0.00002       4.35918
   490    O   11  f(S1)  Ryd( 5f)     0.00012       5.10917
   491    O   11  f(S1)  Ryd( 4f)     0.00001       4.79314
   492    O   11  f(C2)  Ryd( 4f)     0.00003       4.53643
   493    O   11  f(C2)  Ryd( 5f)     0.00000       4.54997
   494    O   11  f(S2)  Ryd( 5f)     0.00008       4.69276
   495    O   11  f(S2)  Ryd( 4f)     0.00002       4.35082
   496    O   11  f(C3)  Ryd( 5f)     0.00023       5.30227
   497    O   11  f(C3)  Ryd( 4f)     0.00002       5.19569
   498    O   11  f(S3)  Ryd( 5f)     0.00015       5.11006
   499    O   11  f(S3)  Ryd( 4f)     0.00001       4.80632
 
   500    O   12  S      Cor( 1S)     1.99982     -19.46239
   501    O   12  S      Val( 2S)     1.74195      -1.01240
   502    O   12  S      Ryd( 4S)     0.00041       4.02881
   503    O   12  S      Ryd( 3S)     0.00016       2.83269
   504    O   12  S      Ryd( 5S)     0.00002       7.99787
   505    O   12  px     Val( 2p)     1.77459      -0.37431
   506    O   12  px     Ryd( 4p)     0.00117       1.24499
   507    O   12  px     Ryd( 3p)     0.00009       0.94135
   508    O   12  px     Ryd( 5p)     0.00005       4.89637
   509    O   12  py     Val( 2p)     1.39359      -0.31628
   510    O   12  py     Ryd( 4p)     0.00110       1.73236
   511    O   12  py     Ryd( 3p)     0.00016       1.00151
   512    O   12  py     Ryd( 5p)     0.00005       5.31903
   513    O   12  pz     Val( 2p)     1.45089      -0.33488
   514    O   12  pz     Ryd( 4p)     0.00142       0.97628
   515    O   12  pz     Ryd( 3p)     0.00004       0.68900
   516    O   12  pz     Ryd( 5p)     0.00002       4.13876
   517    O   12  dxy    Ryd( 3d)     0.00395       2.25896
   518    O   12  dxy    Ryd( 4d)     0.00007       2.56569
   519    O   12  dxy    Ryd( 5d)     0.00003       6.76717
   520    O   12  dxz    Ryd( 4d)     0.00149       1.70294
   521    O   12  dxz    Ryd( 3d)     0.00002       1.68966
   522    O   12  dxz    Ryd( 5d)     0.00001       6.33750
   523    O   12  dyz    Ryd( 4d)     0.00345       1.95502
   524    O   12  dyz    Ryd( 3d)     0.00005       1.60730
   525    O   12  dyz    Ryd( 5d)     0.00001       6.44578
   526    O   12  dx2y2  Ryd( 4d)     0.00426       2.25028
   527    O   12  dx2y2  Ryd( 3d)     0.00014       2.06002
   528    O   12  dx2y2  Ryd( 5d)     0.00004       6.72841
   529    O   12  dz2    Ryd( 3d)     0.00161       1.90535
   530    O   12  dz2    Ryd( 4d)     0.00003       2.04974
   531    O   12  dz2    Ryd( 5d)     0.00001       6.57752
   532    O   12  f(0)   Ryd( 5f)     0.00003       4.69220
   533    O   12  f(0)   Ryd( 4f)     0.00001       4.10760
   534    O   12  f(C1)  Ryd( 5f)     0.00003       4.71747
   535    O   12  f(C1)  Ryd( 4f)     0.00002       4.31716
   536    O   12  f(S1)  Ryd( 5f)     0.00012       5.14294
   537    O   12  f(S1)  Ryd( 4f)     0.00001       4.81047
   538    O   12  f(C2)  Ryd( 5f)     0.00003       4.57395
   539    O   12  f(C2)  Ryd( 4f)     0.00000       4.51733
   540    O   12  f(S2)  Ryd( 5f)     0.00007       4.69229
   541    O   12  f(S2)  Ryd( 4f)     0.00002       4.34556
   542    O   12  f(C3)  Ryd( 5f)     0.00022       5.31226
   543    O   12  f(C3)  Ryd( 4f)     0.00002       5.17903
   544    O   12  f(S3)  Ryd( 5f)     0.00016       5.12276
   545    O   12  f(S3)  Ryd( 4f)     0.00001       4.78759
 
   546    H   13  S      Val( 1S)     0.76025       0.04186
   547    H   13  S      Ryd( 3S)     0.00043       1.52270
   548    H   13  S      Ryd( 2S)     0.00017       1.05755
   549    H   13  S      Ryd( 4S)     0.00006       1.87090
   550    H   13  px     Ryd( 2p)     0.00042       0.96326
   551    H   13  px     Ryd( 4p)     0.00015       4.03720
   552    H   13  px     Ryd( 3p)     0.00005       3.85481
   553    H   13  py     Ryd( 2p)     0.00071       0.84375
   554    H   13  py     Ryd( 3p)     0.00016       3.79223
   555    H   13  py     Ryd( 4p)     0.00011       4.80442
   556    H   13  pz     Ryd( 2p)     0.00048       0.53233
   557    H   13  pz     Ryd( 4p)     0.00005       3.56694
   558    H   13  pz     Ryd( 3p)     0.00010       2.56963
   559    H   13  dxy    Ryd( 3d)     0.00006       2.33510
   560    H   13  dxy    Ryd( 4d)     0.00008       4.44542
   561    H   13  dxz    Ryd( 3d)     0.00004       1.44053
   562    H   13  dxz    Ryd( 4d)     0.00002       3.92925
   563    H   13  dyz    Ryd( 3d)     0.00005       1.47610
   564    H   13  dyz    Ryd( 4d)     0.00001       4.07867
   565    H   13  dx2y2  Ryd( 3d)     0.00004       2.18956
   566    H   13  dx2y2  Ryd( 4d)     0.00004       4.56062
   567    H   13  dz2    Ryd( 3d)     0.00007       2.31678
   568    H   13  dz2    Ryd( 4d)     0.00003       4.14412
 
   569    H   14  S      Val( 1S)     0.74778       0.04398
   570    H   14  S      Ryd( 4S)     0.00056       1.93665
   571    H   14  S      Ryd( 2S)     0.00018       0.69584
   572    H   14  S      Ryd( 3S)     0.00003       1.76705
   573    H   14  px     Ryd( 2p)     0.00092       0.93464
   574    H   14  px     Ryd( 4p)     0.00011       4.21500
   575    H   14  px     Ryd( 3p)     0.00006       2.87340
   576    H   14  py     Ryd( 2p)     0.00065       0.78859
   577    H   14  py     Ryd( 3p)     0.00018       4.19779
   578    H   14  py     Ryd( 4p)     0.00007       4.22338
   579    H   14  pz     Ryd( 2p)     0.00042       0.53327
   580    H   14  pz     Ryd( 4p)     0.00001       3.97432
   581    H   14  pz     Ryd( 3p)     0.00005       1.72530
   582    H   14  dxy    Ryd( 3d)     0.00009       2.18719
   583    H   14  dxy    Ryd( 4d)     0.00003       4.48580
   584    H   14  dxz    Ryd( 3d)     0.00002       1.41627
   585    H   14  dxz    Ryd( 4d)     0.00000       3.82485
   586    H   14  dyz    Ryd( 3d)     0.00003       1.51342
   587    H   14  dyz    Ryd( 4d)     0.00001       4.02691
   588    H   14  dx2y2  Ryd( 3d)     0.00004       2.08173
   589    H   14  dx2y2  Ryd( 4d)     0.00005       4.57331
   590    H   14  dz2    Ryd( 3d)     0.00004       1.96774
   591    H   14  dz2    Ryd( 4d)     0.00003       3.99613
 
   592    H   15  S      Val( 1S)     0.74709       0.04543
   593    H   15  S      Ryd( 4S)     0.00054       1.96334
   594    H   15  S      Ryd( 2S)     0.00022       0.68658
   595    H   15  S      Ryd( 3S)     0.00004       1.65893
   596    H   15  px     Ryd( 2p)     0.00096       0.86867
   597    H   15  px     Ryd( 4p)     0.00012       4.04668
   598    H   15  px     Ryd( 3p)     0.00007       2.92505
   599    H   15  py     Ryd( 2p)     0.00062       0.74214
   600    H   15  py     Ryd( 3p)     0.00017       4.09062
   601    H   15  py     Ryd( 4p)     0.00006       4.23381
   602    H   15  pz     Ryd( 2p)     0.00036       0.51341
   603    H   15  pz     Ryd( 4p)     0.00001       3.88699
   604    H   15  pz     Ryd( 3p)     0.00006       1.82433
   605    H   15  dxy    Ryd( 3d)     0.00010       2.18487
   606    H   15  dxy    Ryd( 4d)     0.00004       4.44956
   607    H   15  dxz    Ryd( 3d)     0.00002       1.36640
   608    H   15  dxz    Ryd( 4d)     0.00001       3.87228
   609    H   15  dyz    Ryd( 3d)     0.00002       1.46411
   610    H   15  dyz    Ryd( 4d)     0.00001       4.04931
   611    H   15  dx2y2  Ryd( 3d)     0.00005       2.05379
   612    H   15  dx2y2  Ryd( 4d)     0.00005       4.56988
   613    H   15  dz2    Ryd( 3d)     0.00004       1.93469
[...]
   zx        -0.517516D+01     -0.766880D+00     -0.853269D+00
   zy         0.130538D+02      0.193437D+01      0.215228D+01
   zz         0.142234D+03      0.210769D+02      0.234512D+02

 ----------------------------------------------------------------------
 Unable to Open any file for archive entry.
 1\1\GINC-AE26\Freq\RM062X\Aug-CC-pVTZ\C7H5N1O4\AKJ\27-Apr-2023\0\\#N G
 eom=AllCheck Guess=TCheck SCRF=Check GenChk RM062X/Aug-CC-pVTZ Freq\\C
 YH-206-A_eq00000\\0,1\C,-0.8866559017,0.0916348094,-0.0810816672\C,-0.
 302258886,-1.1677796255,0.003001585\C,1.0745170686,-1.2826872904,0.099
 4520091\C,1.8295446946,-0.1247498698,0.1088458262\C,1.2725260131,1.139
 1708068,0.026441621\C,-0.1034826927,1.2411224533,-0.0695102011\C,-2.36
 39868536,0.2630877681,-0.1862827647\O,-2.9174772389,1.3246406749,-0.26
 13193281\O,-3.0266137184,-0.9054015376,-0.1893012529\N,3.3006529135,-0
 .2429155516,0.2117716564\O,3.9421764275,0.7824294726,0.2182073377\O,3.
 7662474756,-1.3572205215,0.282102373\H,-0.9233685011,-2.0507302778,-0.
 0071932103\H,1.5642595009,-2.2416013288,0.1664673216\H,1.911796519,2.0
 081211048,0.0383711903\H,-0.5884468185,2.2044267519,-0.1363748573\H,-3
 .9683299819,-0.6994478285,-0.2598976586\\Version=ES64L-G16RevC.01\Stat
 e=1-A\HF=-625.3295978\RMSD=4.335e-09\RMSF=6.410e-05\ZeroPoint=0.119408
 \Thermal=0.1289901\ETot=-625.2006077\HTot=-625.1996636\GTot=-625.24656
 14\Dipole=-1.3538117,-0.4505742,-0.0744552\DipoleDeriv=-0.4589483,0.02
 89067,-0.0305114,0.0280603,0.0588671,-0.0009141,-0.0304712,-0.0008655,
 -0.0215304,-0.0090366,0.2300799,-0.0031443,-0.0121305,-0.0446785,-0.00
 22235,0.0055195,0.014031,-0.0844813,-0.0583349,-0.2134242,0.0083046,0.
 047391,-0.0829754,0.0036786,-0.001044,-0.0137775,-0.0683049,-0.2446973
 ,0.0387716,-0.0212198,0.0418701,0.1947409,-0.0023308,-0.0213663,-0.002
 5254,0.0498003,-0.0144737,0.208746,-0.0040055,-0.0682941,-0.1067935,-0
 .0031073,0.0057488,0.0154798,-0.0656398,-0.067575,-0.2228513,0.0088375
 ,0.0213596,-0.006284,-0.0012337,0.000172,-0.0176264,-0.0803538,2.12652
 45,0.0250612,0.1190917,0.1026457,1.6562465,-0.0399442,0.1163828,-0.045
 153,0.3480474,-1.1010534,0.3609283,-0.0623418,0.2776547,-1.0067182,0.0
 41493,-0.059444,0.0471721,-0.3689487,-1.0083773,-0.4984909,-0.026071,-
 0.4979814,-0.9618907,-0.011868,-0.0261545,-0.011979,-0.3571033,1.80923
 75,-0.0081615,0.1040932,-0.0035978,1.7246979,-0.0519332,0.1038287,-0.0
 522819,0.2707998,-0.92577,-0.4107678,-0.0313321,-0.2129409,-0.9323971,
 0.0100374,-0.0381556,-0.0029356,-0.2449307,-0.8280453,0.3937297,-0.053
 1705,0.1938811,-1.0328135,0.0409931,-0.0459845,0.0541179,-0.2481416,0.
 080906,-0.0271534,-0.0023537,-0.0323469,0.0473648,0.0007934,-0.0021603
 ,0.0011322,0.130314,0.1153565,0.017557,-0.0022541,0.0099429,0.0805017,
 0.002779,-0.001998,0.003267,0.139278,0.1102929,-0.0223501,-0.0011687,-
 0.0145061,0.0880252,0.0008657,-0.001441,0.0003394,0.1394452,0.0979707,
 0.0229939,-0.0029102,0.011721,0.0535124,0.0034835,-0.0024958,0.0042441
 ,0.1288536,0.3760236,0.0764251,0.0001561,0.1072712,0.2705945,0.0094311
 ,-0.0009367,0.0073609,0.3328961\Polar=147.7265071,-3.6090404,111.21047
 89,6.1853839,-2.1552358,57.9114985\Quadrupole=-5.6276373,3.2076448,2.4
 199925,6.149251,-0.7610782,0.385771\PG=C01 [X(C7H5N1O4)]\NImag=0\\0.65
 213261,0.00388397,0.72306034,0.03362658,-0.02019846,0.15184062,-0.1607
 7856,0.03494952,-0.00769508,0.71015113,0.10628021,-0.29901096,0.015481
 51,0.04809574,0.72387100,-0.01023788,0.01069565,-0.06568118,0.03642493
 ,-0.01752391,0.14463572,-0.01795534,0.08855145,-0.00478667,-0.34648921
 ,-0.02180390,-0.01817143,0.70165123,0.03272671,0.03121016,0.00130952,0
 .05731389,-0.13483208,0.00637122,-0.04084216,0.75018923,-0.00279724,0.
 00505467,0.00599258,-0.02099304,0.00106272,-0.06544231,0.03922835,-0.0
 2452974,0.14209285,-0.00559602,-0.00657716,0.00026208,-0.03957520,-0.0
 1921767,-0.00223482,-0.17152217,-0.12937039,-0.00260585,0.56727983,-0.
 00614275,-0.07765370,0.00214105,-0.08234381,0.04936429,-0.00714515,-0.
 05295592,-0.29182073,0.00456395,0.01951713,0.77730960,0.00024689,0.002
 11064,-0.00606832,0.00001572,-0.00290917,0.00402720,-0.00532935,-0.000
 56238,-0.06432719,0.02748132,-0.02113082,0.14967111,-0.03617287,-0.076
 36416,-0.00008559,-0.05538359,0.03724656,-0.00483169,0.07225285,0.0190
 9863,0.00367493,-0.14477938,0.02714583,-0.00641012,0.72012603,-0.02130
 314,0.04907499,-0.00297535,0.03967149,-0.02662166,0.00349860,-0.039803
 81,-0.05760080,-0.00035765,0.10355645,-0.31500932,0.01590052,0.0506064
 4,0.73291555,-0.00204778,-0.00666892,0.00576736,-0.00491691,0.00333478
 ,-0.00359969,0.00577386,0.00359510,0.00757724,-0.00913192,0.01077666,-
 0.06472073,0.03720554,-0.01777684,0.14188429,-0.18459642,-0.05364237,-
 0.00603626,0.07501017,-0.03886872,0.00596780,-0.06678954,-0.03321023,-
 0.00307863,-0.02097485,0.09351309,-0.00499384,-0.35214899,-0.02337881,
 -0.01852462,0.70725492,-0.12501564,-0.27142382,-0.00106954,0.01737350,
 -0.05960906,0.00352868,-0.03151264,-0.01570326,-0.00166996,0.03117016,
 0.03185833,0.00109449,0.05488192,-0.13508203,0.00622514,-0.04183773,0.
 73175935,-0.00349297,0.00372048,-0.06646364,0.00396407,-0.00024426,0.0
 0698584,-0.00314023,-0.00178531,-0.00340421,-0.00277446,0.00527427,0.0
 0343471,-0.02130904,0.00097501,-0.06513484,0.03937585,-0.02380680,0.14
 602373,-0.20385868,0.00899420,-0.00822709,-0.01114705,0.01472658,-0.00
 135217,0.00314958,0.00031766,-0.00037512,0.00505223,-0.00068354,0.0003
 6486,0.00169688,-0.00230218,-0.00033814,-0.02711290,-0.01201181,-0.001
 57228,0.72022096,-0.00190408,-0.09726814,0.00027683,0.02814614,0.00576
 073,0.00172399,0.00479055,-0.00600030,0.00084077,0.00004972,-0.0051923
 6,0.00018737,-0.00781453,-0.00476441,-0.00007014,-0.02210847,0.0146191
 0,-0.00190706,-0.17464378,0.92641803,-0.00785111,0.00100908,-0.0864565
 8,-0.00182917,0.00082557,0.00102738,-0.00053483,0.00053964,0.00852118,
 0.00033888,0.00013837,-0.00001096,-0.00014255,0.00030009,0.00794897,-0
 .00121112,-0.00123164,0.00265350,0.04011450,-0.03704592,0.21981456,-0.
 02773300,0.04765457,-0.00502848,-0.00654081,-0.00616488,-0.00036527,-0
 .00244457,0.00208027,-0.00011568,-0.00172785,0.00183488,-0.00017696,0.
 00140177,0.00028771,0.00013958,-0.00127546,0.00299548,-0.00020452,-0.2
 7039862,0.26886802,-0.02241165,0.26841334,0.02819000,-0.01349873,0.003
 15348,0.00148884,0.00277622,0.00007872,0.00080416,0.00029312,-0.000021
 58,0.00030388,0.00013043,0.00001337,0.00150616,0.00133195,0.00002374,-
 0.00503944,-0.00645776,-0.00010188,0.27818633,-0.60772146,0.03751985,-
 0.31156540,0.73428337,-0.00433013,0.00445897,0.02139860,-0.00063922,-0
 .00043528,0.00215285,-0.00007016,0.00006466,-0.00183150,-0.00012231,0.
 00011592,-0.00007741,0.00009636,-0.00005821,-0.00083001,0.00008179,0.0
 0043825,0.00017604,-0.02274678,0.03689691,-0.08232278,0.02688865,-0.04
 590531,0.03690387,-0.03250804,-0.04040318,-0.00154133,-0.00522722,-0.0
 0094749,-0.00034373,0.00085506,-0.00017244,0.00011412,-0.00155024,-0.0
 0118962,-0.00006005,-0.00211885,-0.00160037,-0.00005252,-0.00520075,0.
 00584645,-0.00063791,-0.18197847,-0.08811255,-0.00469094,0.03880431,-0
 .00319059,0.00071941,0.66688716,-0.01024776,-0.00040678,-0.00025494,0.
 00077803,-0.00392097,0.00020635,-0.00072098,0.00109083,-0.00011419,-0.
 00078886,0.00025702,-0.00006299,0.00019521,0.00086292,-0.00003492,0.00
 069366,0.00100893,0.00005321,-0.06091517,-0.23309413,0.00186195,-0.014
 52224,-0.11419414,0.00414660,-0.00114024,0.41903137,-0.00260932,-0.002
 27871,0.01171749,-0.00040536,0.00008986,0.00036321,0.00013369,-0.00007
 721,-0.00074476,-0.00007447,-0.00008981,-0.00002554,-0.00011677,-0.000
 15560,-0.00048531,-0.00045486,0.00039969,0.00115694,-0.00565903,0.0000
 3055,-0.06594150,0.00112260,0.00491029,0.02968963,0.04224431,-0.013595
 62,0.04207614,0.00392628,-0.00042846,0.00033855,0.00417739,-0.00454210
 ,-0.00017288,-0.03344161,-0.01218685,-0.00183309,-0.13326895,0.0020198
 6,-0.00290580,-0.02661407,0.01937338,-0.00249562,0.00577546,0.00252144
 ,-0.00031137,-0.00921497,-0.00000060,-0.00051239,0.00383979,-0.0016224
 8,0.00030361,0.00314144,0.00167228,0.00014666,0.69891703,-0.00076181,-
 0.00539040,0.00010926,-0.00733615,-0.00617602,0.00005369,-0.02123938,0
 .01782999,-0.00205065,0.00181663,-0.11011456,0.00079503,0.02850767,0.0
 1142364,0.00152014,0.00537219,-0.00775801,0.00096175,0.00074014,-0.000
 46956,0.00001025,0.00008127,-0.00011320,0.00001577,-0.00069838,-0.0003
 7855,-0.00003090,0.02879544,1.03293585,0.00035213,0.00013011,-0.000876
 80,-0.00007659,0.00024045,0.00917267,-0.00150881,-0.00143543,0.0003165
 5,-0.00285028,0.00080608,-0.09159178,-0.00282865,0.00090286,0.00012015
 ,-0.00041369,0.00077292,0.00905070,-0.00053896,-0.00003959,-0.00161565
 ,0.00024289,-0.00009880,0.00019813,0.00023054,0.00012826,0.00008457,0.
 02898373,-0.02579281,0.25225334,-0.00175039,-0.00148707,-0.00006776,-0
 .00292779,-0.00153061,-0.00005159,-0.00498320,0.00742787,-0.00075619,-
 0.04187692,-0.04855831,-0.00256773,-0.00451473,-0.00169612,-0.00030219
 ,0.00071072,-0.00068409,0.00012377,0.00360655,-0.00047216,0.00025460,-
 0.00167996,0.00091445,-0.00014650,-0.00141007,-0.00049531,-0.00007818,
 -0.29185063,-0.21000877,-0.00649700,0.29999309,0.00043746,0.00063893,0
 .00000841,-0.00030609,0.00069744,-0.00009323,-0.00112453,0.00165196,-0
 .00005054,-0.02787747,-0.00593289,-0.00085647,0.00669237,-0.00737990,0
 .00074152,-0.00184456,0.00193226,-0.00022047,0.00082950,-0.00004563,0.
 00005933,-0.00053600,0.00046345,-0.00005184,-0.00006088,0.00015791,-0.
 00000910,-0.21648302,-0.43155714,-0.00210920,0.26260509,0.57317786,-0.
 00013679,-0.00012078,0.00004753,-0.00009505,-0.00017442,-0.00134957,-0
 .00044921,0.00052171,0.00229038,-0.00332581,-0.00224723,0.02220773,-0.
 00059847,0.00018107,0.00082560,0.00016477,-0.00014304,-0.00074941,0.00
 020815,-0.00002787,0.00007558,-0.00009463,0.00004541,0.00000925,-0.000
 09340,-0.00003826,0.00001124,-0.00624482,-0.00165530,-0.08351802,0.008
 70961,-0.00169514,0.03100586,-0.00153009,0.00170142,-0.00016545,0.0011
 6322,0.00086361,0.00009903,-0.00541286,0.00135303,-0.00046968,-0.02869
 268,0.05199458,-0.00524272,-0.00577772,-0.00627089,-0.00032084,-0.0025
 6596,0.00208956,-0.00015996,0.00348309,0.00032762,0.00021820,-0.001662
 93,0.00048186,-0.00013087,-0.00138867,-0.00080857,-0.00006643,-0.22664
 766,0.17534201,-0.01577286,0.05154553,-0.02505283,0.00239114,0.2226070
 0,-0.00008935,0.00053606,-0.00002417,0.00201531,0.00150377,0.00005511,
 -0.00714286,-0.00651697,-0.00021256,0.03147380,-0.01871045,0.00354707,
 0.00228098,0.00246468,0.00014818,0.00087042,0.00027282,0.00000331,-0.0
 0138937,-0.00023814,-0.00008288,0.00044885,0.00022986,0.00002306,0.000
 77875,0.00059966,0.00003204,0.18175381,-0.49406836,0.02663934,-0.00624
 950,-0.13822855,0.00548909,-0.20352324,0.64762152,-0.00010185,0.000097
 25,0.00002036,0.00005981,-0.00002299,-0.00076665,-0.00017111,0.0003527
 1,0.00087477,-0.00453964,0.00492996,0.02184256,-0.00062114,-0.00042282
 ,0.00232063,-0.00011545,0.00008130,-0.00132655,0.00027876,0.00003239,0
 .00007589,-0.00012937,0.00002541,0.00002153,-0.00012235,-0.00007435,0.
 00002249,-0.01598120,0.02618829,-0.08512176,0.00172696,0.00424513,0.02
 897302,0.02002500,-0.03537754,0.03294130,0.01193500,0.01067191,0.00015
 302,-0.15316082,-0.13805885,-0.00262037,-0.01253224,-0.02522461,-0.000
 25969,-0.00448833,0.00157917,-0.00087536,-0.00084849,0.00091887,-0.000
 02474,-0.00064696,0.00346311,-0.00059282,0.00180417,0.00099769,0.00035
 881,-0.00003328,-0.00084459,-0.00001327,-0.00424538,0.00054633,-0.0003
 1729,0.00012878,-0.00169863,0.00005085,-0.00080192,-0.00015605,-0.0000
 2758,-0.00008246,0.00030190,-0.00002110,0.16120108,-0.01728987,-0.0178
 0611,-0.00038365,-0.13618415,-0.25605899,-0.00146099,0.00407738,0.0077
 6345,0.00016556,0.00136887,0.00112691,0.00032699,0.00086905,0.00009266
 ,0.00002041,0.00364284,-0.00359991,0.00059913,-0.00213173,-0.00210647,
 -0.00021335,0.00023207,0.00095711,0.00000336,-0.00035571,0.00132280,-0
 .00006422,0.00035247,0.00049083,0.00001587,0.00022851,0.00005310,0.000
 00249,-0.00006039,-0.00004306,0.00000011,0.14655002,0.26754052,0.00114
 961,0.00149322,0.00400443,-0.00268715,-0.00158776,-0.04085785,-0.00130
 444,-0.00179983,0.00471901,-0.00086747,0.00034073,0.00764989,-0.000022
 77,0.00002364,-0.00097036,-0.00059957,0.00058677,0.00629105,0.00047033
 ,-0.00000318,-0.00404084,-0.00005164,-0.00006903,0.00061196,-0.0002850
 9,-0.00000371,0.00016912,-0.00002188,-0.00012145,0.00026775,-0.0000414
 3,-0.00002322,-0.00030625,-0.00000834,0.00002431,0.00007400,0.00377822
 ,0.00125858,0.02721879,-0.00508341,-0.00040230,-0.00083529,-0.00722562
 ,0.02678824,-0.00175516,-0.11439025,0.11787758,-0.00919016,0.01338568,
 -0.01418803,0.00105811,-0.00209950,-0.00368492,-0.00037859,-0.00119094
 ,-0.00077269,0.00002428,0.00064397,0.00139312,-0.00001288,-0.00072607,
 0.00023341,-0.00004469,-0.00011355,-0.00024589,-0.00000015,0.00082772,
 -0.00106585,0.00039840,0.00065862,0.00171225,-0.00004851,-0.00490609,-
 0.00014029,-0.00031774,0.00116316,-0.00040061,0.00037868,0.11833820,-0
 .00081107,0.00145783,0.00016389,-0.00137322,0.00502109,-0.00010362,0.1
 1577625,-0.29477241,0.01684318,0.01241172,-0.01867847,0.00168149,-0.00
 393165,-0.00230005,0.00001402,-0.00065877,0.00041388,-0.00009965,-0.00
 003093,0.00024707,-0.00000728,-0.00014409,0.00002898,-0.00001734,-0.00
 001733,-0.00003799,0.00000084,0.00227251,-0.00366233,0.00011968,0.0000
 9404,0.00123144,-0.00002061,0.00152951,0.00307957,-0.00000966,0.000304
 36,0.00048841,-0.00014918,-0.12622611,0.30823273,-0.00082123,0.0001916
 2,0.00752360,-0.00075099,0.00178635,0.00459170,-0.00911531,0.01698137,
 -0.04123276,0.00011029,-0.00010097,0.00516448,-0.00036930,0.00003047,0
 .00547405,0.00001982,-0.00010748,-0.00113823,0.00003783,0.00008834,0.0
 0009859,-0.00003121,0.00000805,-0.00018794,-0.00000828,-0.00001451,0.0
 0001838,0.00027944,-0.00010313,-0.00452719,0.00000877,0.00008715,0.000
 47123,-0.00037699,-0.00012203,-0.00010187,0.00035361,-0.00019661,-0.00
 423951,0.01063578,-0.01849204,0.02820744,-0.00467258,0.00131373,-0.000
 88185,-0.00093747,0.00100047,-0.00002317,-0.00087742,0.00342832,-0.000
 55089,0.01279587,0.00906990,0.00019212,-0.15674143,-0.14109744,-0.0027
 8598,-0.01097854,-0.02425694,-0.00019015,0.00027429,-0.00151477,0.0000
 7090,-0.00008092,0.00033051,-0.00002269,-0.00060131,0.00001388,-0.0000
 3420,0.00053015,0.00041655,0.00032180,-0.00485841,0.00139003,-0.000370
 75,0.00038004,-0.00157220,0.00005000,-0.00002373,-0.00008302,0.0000622
 5,0.00073487,0.00072311,-0.00002237,0.16393104,0.00178974,0.00109229,0
 .00035798,0.00085147,0.00017356,0.00001090,0.00367193,-0.00344882,0.00
 056556,-0.01748918,-0.01814944,-0.00034402,-0.13896307,-0.25357770,-0.
 00172428,0.00382089,0.00874573,0.00011368,-0.00000662,0.00044173,-0.00
 001542,0.00003752,-0.00009731,0.00000888,0.00022659,0.00002887,0.00001
 066,-0.00296001,-0.00338393,-0.00023794,-0.00024168,0.00313392,-0.0001
 3057,0.00005011,0.00150259,-0.00003327,-0.00007257,0.00000012,-0.00003
 722,-0.00096210,-0.00073808,-0.00001385,0.15061074,0.26379262,-0.00089
 907,0.00032595,0.00770236,-0.00001842,0.00002121,-0.00112537,-0.000559
 16,0.00054974,0.00545432,0.00114040,0.00143516,0.00514594,-0.00286332,
 -0.00186469,-0.04040912,-0.00118939,-0.00177063,0.00471700,0.00001708,
 -0.00011669,0.00003015,-0.00001217,0.00002857,0.00007888,-0.00004174,-
 0.00000365,-0.00010263,0.00043923,-0.00001063,-0.00444566,-0.00031277,
 -0.00002039,-0.00008701,-0.00000634,-0.00014375,0.00046198,0.00006185,
 -0.00003789,-0.00090188,0.00003786,0.00009911,0.00068155,0.00382320,0.
 00166670,0.02715484,0.01302941,-0.01507123,0.00108194,-0.00207798,-0.0
 0357124,-0.00041694,-0.00104299,-0.00072153,0.00001932,-0.00474633,-0.
 00068862,-0.00081401,-0.00837528,0.02719524,-0.00184877,-0.11459340,0.
 11534288,-0.00901123,0.00055740,-0.00248733,0.00039477,-0.00204872,0.0
 0089542,-0.00015217,0.00052633,0.00149370,-0.00002441,0.00033887,0.001
 67841,-0.00005384,-0.00011620,-0.00029141,-0.00000282,-0.00075508,0.00
 027572,-0.00003962,0.00063351,-0.00098584,0.00004953,-0.00001183,0.000
 07694,0.00005208,0.00118073,-0.00039274,0.00038390,0.11760336,0.012202
 22,-0.01891085,0.00166769,-0.00383857,-0.00244658,0.00004473,-0.000681
 43,0.00036384,-0.00009241,-0.00057505,0.00137845,0.00018809,-0.0017076
 9,0.00456348,-0.00010812,0.11379946,-0.29159444,0.01654553,0.00184143,
 -0.00269274,0.00007649,0.00097603,0.00222372,-0.00002296,0.00005248,0.
 00075559,-0.00001972,-0.00027484,0.00032011,-0.00002148,0.00003966,-0.
 00001774,0.00000634,-0.00014200,0.00006104,-0.00002236,0.00068991,-0.0
 0081554,0.00009029,0.00008230,-0.00002592,-0.00002312,0.00033199,0.000
 45925,-0.00014832,-0.12265218,0.30644703,0.00010958,-0.00016323,0.0049
 1767,-0.00040776,0.00006292,0.00600687,0.00001827,-0.00009518,-0.00094
 365,-0.00081762,0.00018104,0.00768540,-0.00081915,0.00183072,0.0046179
 2,-0.00895576,0.01664998,-0.04273121,0.00024103,-0.00021384,-0.0039867
 3,-0.00015498,-0.00002827,-0.00026616,0.00002658,0.00007683,0.00009991
 ,0.00001619,0.00010940,0.00023961,-0.00001494,-0.00001585,0.00008349,-
 0.00002527,0.00000555,-0.00030587,-0.00001020,-0.00002215,0.00041898,0
 .00005188,-0.00002341,-0.00082461,0.00035822,-0.00019699,-0.00430241,0
 .01039866,-0.01816035,0.02909843,0.00121211,-0.00334485,-0.00011131,0.
 00096942,-0.00029596,0.00008535,-0.00002731,0.00010426,-0.00001144,0.0
 0028531,0.00007617,0.00001692,0.00009736,-0.00047190,0.00004965,-0.000
 67657,0.00040703,-0.00009106,-0.03677842,-0.00551460,-0.00255400,0.003
 89297,0.00892750,0.00032897,-0.47387173,0.08449191,-0.03380678,-0.0005
 6503,0.00005866,-0.00003965,0.00025572,0.00006615,0.00001418,0.0002433
 2,-0.00009274,0.00002002,-0.00000208,0.00017012,0.00000116,-0.00000496
 ,0.00000472,-0.00000193,-0.00005519,0.00002900,-0.00000114,-0.00010180
 ,-0.00014370,-0.00001473,0.50512688,-0.00194486,-0.00570111,0.00023649
 ,0.00069807,-0.00049179,0.00005928,0.00015588,0.00030279,0.00000287,0.
 00022743,-0.00016312,0.00002080,-0.00024971,-0.00039400,-0.00001648,-0
 .00112346,0.00061791,-0.00008093,-0.05152069,0.01210669,-0.00374413,0.
 00743593,-0.00063560,0.00031857,0.13098452,-0.07308335,0.01084695,-0.0
 0026283,0.00007164,-0.00002034,0.00011399,0.00002359,0.00000710,0.0001
 2461,-0.00006602,0.00001043,0.00003205,0.00059417,-0.00002297,0.000001
 89,0.00001424,0.00000038,-0.00010486,0.00002458,-0.00000981,-0.0000961
 9,-0.00006870,0.00000284,-0.08447176,0.06684807,-0.00015942,0.00014245
 ,0.00461395,0.00005021,-0.00000758,-0.00014081,-0.00001346,-0.00000060
 ,0.00008750,0.00001167,0.00001078,-0.00000708,0.00004174,-0.00003181,-
 0.00038616,-0.00003682,0.00002188,0.00045859,-0.00092296,-0.00065285,0
 .00412923,0.00038284,0.00041799,-0.00572495,-0.03545761,0.00772391,-0.
 01810938,-0.00002836,0.00000128,-0.00000659,0.00001257,0.00000390,0.00
 000936,0.00001239,-0.00000415,-0.00000583,0.00000608,-0.00001362,-0.00
 010829,-0.00000184,0.00000057,0.00002110,0.00000357,-0.00000081,-0.000
 05294,-0.00001639,-0.00000032,0.00019238,0.03611580,-0.00761104,0.0150
 2992\\-0.00001251,0.00002525,-0.00001279,0.00000525,-0.00001409,0.0000
 0159,-0.00005475,-0.00001297,-0.00000364,0.00023771,-0.00001629,-0.000
 01388,-0.00004813,0.00000399,-0.00000507,-0.00000779,0.00000613,-0.000
 00040,-0.00004761,-0.00012379,0.00003799,0.00000609,0.00007632,-0.0000
 1634,0.00006330,0.00005266,-0.00000899,-0.00024852,0.00002234,0.000092
 49,0.00005433,0.00012489,-0.00003920,0.00003449,-0.00014291,-0.0000323
 7,0.00000542,-0.00000019,0.00000051,-0.00000062,-0.00000439,-0.0000004
 2,-0.00000115,0.00000343,-0.00000053,0.00001029,0.00000121,0.00000074,
 0.00000420,-0.00000158,0.00000032\\\@
 The archive entry for this job was punched.


 A DANDELION FROM A LOVER MEANS MORE THAN AN ORCHID FROM A FRIEND.
 Job cpu time:       0 days 16 hours 52 minutes 34.4 seconds.
 Elapsed time:       0 days  0 hours 50 minutes 38.8 seconds.
 File lengths (MBytes):  RWF=    538 Int=      0 D2E=      0 Chk=     35 Scr=      1
 Normal termination of Gaussian 16 at Thu Apr 27 13:31:46 2023.
