 Entering Gaussian System, Link 0=g16
 Initial command:
 /usr/local/gaussian16c01/g16/l1.exe "/scr/dhuang/Gau-43410.inp" -scrdir="/scr/dhuang/"
 Entering Link 1 = /usr/local/gaussian16c01/g16/l1.exe PID=     43411.
  
 Copyright (c) 1988-2019, Gaussian, Inc.  All Rights Reserved.
  
 This is part of the Gaussian(R) 16 program.  It is based on
 the Gaussian(R) 09 system (copyright 2009, Gaussian, Inc.),
 the Gaussian(R) 03 system (copyright 2003, Gaussian, Inc.),
 the Gaussian(R) 98 system (copyright 1998, Gaussian, Inc.),
 the Gaussian(R) 94 system (copyright 1995, Gaussian, Inc.),
 the Gaussian 92(TM) system (copyright 1992, Gaussian, Inc.),
 the Gaussian 90(TM) system (copyright 1990, Gaussian, Inc.),
 the Gaussian 88(TM) system (copyright 1988, Gaussian, Inc.),
 the Gaussian 86(TM) system (copyright 1986, Carnegie Mellon
 University), and the Gaussian 82(TM) system (copyright 1983,
 Carnegie Mellon University). Gaussian is a federally registered
 trademark of Gaussian, Inc.
  
 This software contains proprietary and confidential information,
 including trade secrets, belonging to Gaussian, Inc.
  
 This software is provided under written license and may be
 used, copied, transmitted, or stored only in accord with that
 written license.
  
 The following legend is applicable only to US Government
 contracts under FAR:
  
                    RESTRICTED RIGHTS LEGEND
  
 Use, reproduction and disclosure by the US Government is
 subject to restrictions as set forth in subparagraphs (a)
 and (c) of the Commercial Computer Software - Restricted
 Rights clause in FAR 52.227-19.
  
 Gaussian, Inc.
 340 Quinnipiac St., Bldg. 40, Wallingford CT 06492
  
  
 ---------------------------------------------------------------
 Warning -- This program may not be used in any manner that
 competes with the business of Gaussian, Inc. or will provide
 assistance to any competitor of Gaussian, Inc.  The licensee
 of this program is prohibited from giving any competitor of
 Gaussian, Inc. access to this program.  By using this program,
 the user acknowledges that Gaussian, Inc. is engaged in the
 business of creating and licensing software in the field of
 computational chemistry and represents and warrants to the
 licensee that it is not a competitor of Gaussian, Inc. and that
 it will not use this program in any manner prohibited above.
 ---------------------------------------------------------------
  

 Cite this work as:
 Gaussian 16, Revision C.01,
 M. J. Frisch, G. W. Trucks, H. B. Schlegel, G. E. Scuseria, 
 M. A. Robb, J. R. Cheeseman, G. Scalmani, V. Barone, 
 G. A. Petersson, H. Nakatsuji, X. Li, M. Caricato, A. V. Marenich, 
 J. Bloino, B. G. Janesko, R. Gomperts, B. Mennucci, H. P. Hratchian, 
 J. V. Ortiz, A. F. Izmaylov, J. L. Sonnenberg, D. Williams-Young, 
 F. Ding, F. Lipparini, F. Egidi, J. Goings, B. Peng, A. Petrone, 
 T. Henderson, D. Ranasinghe, V. G. Zakrzewski, J. Gao, N. Rega, 
 G. Zheng, W. Liang, M. Hada, M. Ehara, K. Toyota, R. Fukuda, 
 J. Hasegawa, M. Ishida, T. Nakajima, Y. Honda, O. Kitao, H. Nakai, 
 T. Vreven, K. Throssell, J. A. Montgomery, Jr., J. E. Peralta, 
 F. Ogliaro, M. J. Bearpark, J. J. Heyd, E. N. Brothers, K. N. Kudin, 
 V. N. Staroverov, T. A. Keith, R. Kobayashi, J. Normand, 
 K. Raghavachari, A. P. Rendell, J. C. Burant, S. S. Iyengar, 
 J. Tomasi, M. Cossi, J. M. Millam, M. Klene, C. Adamo, R. Cammi, 
 J. W. Ochterski, R. L. Martin, K. Morokuma, O. Farkas, 
 J. B. Foresman, and D. J. Fox, Gaussian, Inc., Wallingford CT, 2019.
 
 ******************************************
 Gaussian 16:  ES64L-G16RevC.01  3-Jul-2019
                 2-Apr-2025 
 ******************************************
 %nprocshared=20
 Will use up to   20 processors via shared memory.
 %mem=10000MW
 %chk=o-CF3.chk
 ------------------------------------
 # opt freq m062x/aug-cc-pvtz pop=nbo
 ------------------------------------
 1/18=20,19=15,26=3,38=1/1,3;
 2/9=110,12=2,17=6,18=5,40=1/2;
 3/5=16,6=1,7=10,11=2,25=1,30=1,71=1,74=-55/1,2,3;
 4//1;
 5/5=2,38=5/2;
 6/7=2,8=2,9=2,10=2,28=1,40=1/1,7;
 7//1,2,3,16;
 1/18=20,19=15,26=3/3(2);
 2/9=110/2;
 99//99;
 2/9=110/2;
 3/5=16,6=1,7=10,11=2,25=1,30=1,71=1,74=-55/1,2,3;
 4/5=5,16=3,69=1/1;
 5/5=2,38=5/2;
 7//1,2,3,16;
 1/18=20,19=15,26=3/3(-5);
 2/9=110/2;
 6/7=2,8=2,9=2,10=2,19=2,28=1,40=1/1,7;
 99/9=1/99;
 -----
 o-CF3
 -----
 Symbolic Z-matrix:
 Charge =  0 Multiplicity = 1
 C                    -1.832    -0.3221   -0.0035 
 C                    -1.8959   -1.6606   -0.0038 
 C                    -0.7604   -2.3648   -0.003 
 C                     0.4068   -1.7085   -0.0019 
 C                     0.4965   -0.361    -0.0016 
 C                    -0.6612    0.3542   -0.0024 
 C                    -0.7276    1.7245   -0.0022 
 O                    -1.7785    2.3343   -0.003 
 O                     0.3446    2.5473   -0.0011 
 F                     2.1096    0.9659   -1.0741 
 C                     1.9075    0.2184   -0.0003 
 F                     2.869    -0.6933    0.0002 
 F                     2.1079    0.9655    1.0741 
 H                    -2.8122    0.1836   -0.0043 
 H                    -2.869    -2.1802   -0.0047 
 H                    -0.7892   -3.4673   -0.0032 
 H                     1.311    -2.339    -0.0013 
 H                     0.0368    3.4673   -0.0012 
 

 GradGradGradGradGradGradGradGradGradGradGradGradGradGradGradGradGradGrad
 Berny optimization.
 Initialization pass.
                           ----------------------------
                           !    Initial Parameters    !
                           ! (Angstroms and Degrees)  !
 --------------------------                            --------------------------
 ! Name  Definition              Value          Derivative Info.                !
 --------------------------------------------------------------------------------
 ! R1    R(1,2)                  1.34           estimate D2E/DX2                !
 ! R2    R(1,6)                  1.3521         estimate D2E/DX2                !
 ! R3    R(1,14)                 1.103          estimate D2E/DX2                !
 ! R4    R(2,3)                  1.3361         estimate D2E/DX2                !
 ! R5    R(2,15)                 1.1031         estimate D2E/DX2                !
 ! R6    R(3,4)                  1.3391         estimate D2E/DX2                !
 ! R7    R(3,16)                 1.1029         estimate D2E/DX2                !
 ! R8    R(4,5)                  1.3505         estimate D2E/DX2                !
 ! R9    R(4,17)                 1.1023         estimate D2E/DX2                !
 ! R10   R(5,6)                  1.3608         estimate D2E/DX2                !
 ! R11   R(5,11)                 1.5253         estimate D2E/DX2                !
 ! R12   R(6,7)                  1.3719         estimate D2E/DX2                !
 ! R13   R(7,8)                  1.215          estimate D2E/DX2                !
 ! R14   R(7,9)                  1.3515         estimate D2E/DX2                !
 ! R15   R(9,18)                 0.9701         estimate D2E/DX2                !
 ! R16   R(10,11)                1.3239         estimate D2E/DX2                !
 ! R17   R(11,12)                1.325          estimate D2E/DX2                !
 ! R18   R(11,13)                1.3239         estimate D2E/DX2                !
 ! A1    A(2,1,6)              122.7456         estimate D2E/DX2                !
 ! A2    A(2,1,14)             114.5566         estimate D2E/DX2                !
 ! A3    A(6,1,14)             122.6977         estimate D2E/DX2                !
 ! A4    A(1,2,3)              119.0726         estimate D2E/DX2                !
 ! A5    A(1,2,15)             120.8338         estimate D2E/DX2                !
 ! A6    A(3,2,15)             120.0936         estimate D2E/DX2                !
 ! A7    A(2,3,4)              118.8457         estimate D2E/DX2                !
 ! A8    A(2,3,16)             120.3095         estimate D2E/DX2                !
 ! A9    A(4,3,16)             120.8448         estimate D2E/DX2                !
 ! A10   A(3,4,5)              123.1569         estimate D2E/DX2                !
 ! A11   A(3,4,17)             115.7635         estimate D2E/DX2                !
 ! A12   A(5,4,17)             121.0797         estimate D2E/DX2                !
 ! A13   A(4,5,6)              117.8984         estimate D2E/DX2                !
 ! A14   A(4,5,11)             116.133          estimate D2E/DX2                !
 ! A15   A(6,5,11)             125.9686         estimate D2E/DX2                !
 ! A16   A(1,6,5)              118.2808         estimate D2E/DX2                !
 ! A17   A(1,6,7)              117.2382         estimate D2E/DX2                !
 ! A18   A(5,6,7)              124.481          estimate D2E/DX2                !
 ! A19   A(6,7,8)              122.8992         estimate D2E/DX2                !
 ! A20   A(6,7,9)              124.7282         estimate D2E/DX2                !
 ! A21   A(8,7,9)              112.3725         estimate D2E/DX2                !
 ! A22   A(7,9,18)             109.004          estimate D2E/DX2                !
 ! A23   A(5,11,10)            110.7935         estimate D2E/DX2                !
 ! A24   A(5,11,12)            114.1983         estimate D2E/DX2                !
 ! A25   A(5,11,13)            110.7984         estimate D2E/DX2                !
 ! A26   A(10,11,12)           106.1428         estimate D2E/DX2                !
 ! A27   A(10,11,13)           108.452          estimate D2E/DX2                !
 ! A28   A(12,11,13)           106.1494         estimate D2E/DX2                !
 ! D1    D(6,1,2,3)             -0.0008         estimate D2E/DX2                !
 ! D2    D(6,1,2,15)           179.9996         estimate D2E/DX2                !
 ! D3    D(14,1,2,3)           179.9948         estimate D2E/DX2                !
 ! D4    D(14,1,2,15)           -0.0048         estimate D2E/DX2                !
 ! D5    D(2,1,6,5)              0.0016         estimate D2E/DX2                !
 ! D6    D(2,1,6,7)           -179.9999         estimate D2E/DX2                !
 ! D7    D(14,1,6,5)          -179.9937         estimate D2E/DX2                !
 ! D8    D(14,1,6,7)             0.0049         estimate D2E/DX2                !
 ! D9    D(1,2,3,4)              0.0011         estimate D2E/DX2                !
 ! D10   D(1,2,3,16)           179.9983         estimate D2E/DX2                !
 ! D11   D(15,2,3,4)          -179.9993         estimate D2E/DX2                !
 ! D12   D(15,2,3,16)           -0.0021         estimate D2E/DX2                !
 ! D13   D(2,3,4,5)             -0.0023         estimate D2E/DX2                !
 ! D14   D(2,3,4,17)          -179.9987         estimate D2E/DX2                !
 ! D15   D(16,3,4,5)          -179.9995         estimate D2E/DX2                !
 ! D16   D(16,3,4,17)            0.0041         estimate D2E/DX2                !
 ! D17   D(3,4,5,6)              0.0031         estimate D2E/DX2                !
 ! D18   D(3,4,5,11)           179.9998         estimate D2E/DX2                !
 ! D19   D(17,4,5,6)           179.9992         estimate D2E/DX2                !
 ! D20   D(17,4,5,11)           -0.0041         estimate D2E/DX2                !
 ! D21   D(4,5,6,1)             -0.0026         estimate D2E/DX2                !
 ! D22   D(4,5,6,7)            179.999          estimate D2E/DX2                !
 ! D23   D(11,5,6,1)          -179.9989         estimate D2E/DX2                !
 ! D24   D(11,5,6,7)             0.0026         estimate D2E/DX2                !
 ! D25   D(4,5,11,10)          119.7898         estimate D2E/DX2                !
 ! D26   D(4,5,11,12)            0.008          estimate D2E/DX2                !
 ! D27   D(4,5,11,13)         -119.786          estimate D2E/DX2                !
 ! D28   D(6,5,11,10)          -60.2138         estimate D2E/DX2                !
 ! D29   D(6,5,11,12)         -179.9956         estimate D2E/DX2                !
 ! D30   D(6,5,11,13)           60.2104         estimate D2E/DX2                !
 ! D31   D(1,6,7,8)             -0.0022         estimate D2E/DX2                !
 ! D32   D(1,6,7,9)            179.9972         estimate D2E/DX2                !
 ! D33   D(5,6,7,8)            179.9963         estimate D2E/DX2                !
 ! D34   D(5,6,7,9)             -0.0044         estimate D2E/DX2                !
 ! D35   D(6,7,9,18)           179.9999         estimate D2E/DX2                !
 ! D36   D(8,7,9,18)            -0.0007         estimate D2E/DX2                !
 --------------------------------------------------------------------------------
 Trust Radius=3.00D-01 FncErr=1.00D-07 GrdErr=1.00D-06 EigMax=2.50D+02 EigMin=1.00D-04
 Number of steps in this run=     92 maximum allowed number of steps=    108.
 GradGradGradGradGradGradGradGradGradGradGradGradGradGradGradGradGradGrad

                          Input orientation:                          
 ---------------------------------------------------------------------
 Center     Atomic      Atomic             Coordinates (Angstroms)
 Number     Number       Type             X           Y           Z
 ---------------------------------------------------------------------
      1          6           0       -1.832000   -0.322100   -0.003500
      2          6           0       -1.895900   -1.660600   -0.003800
      3          6           0       -0.760400   -2.364800   -0.003000
      4          6           0        0.406800   -1.708500   -0.001900
      5          6           0        0.496500   -0.361000   -0.001600
      6          6           0       -0.661200    0.354200   -0.002400
      7          6           0       -0.727600    1.724500   -0.002200
      8          8           0       -1.778500    2.334300   -0.003000
      9          8           0        0.344600    2.547300   -0.001100
     10          9           0        2.109600    0.965900   -1.074100
     11          6           0        1.907500    0.218400   -0.000300
     12          9           0        2.869000   -0.693300    0.000200
     13          9           0        2.107900    0.965500    1.074100
     14          1           0       -2.812200    0.183600   -0.004300
     15          1           0       -2.869000   -2.180200   -0.004700
     16          1           0       -0.789200   -3.467300   -0.003200
     17          1           0        1.311000   -2.339000   -0.001300
     18          1           0        0.036800    3.467300   -0.001200
 ---------------------------------------------------------------------
                    Distance matrix (angstroms):
                    1          2          3          4          5
     1  C    0.000000
     2  C    1.340024   0.000000
     3  C    2.306718   1.336136   0.000000
     4  C    2.633312   2.303199   1.339062   0.000000
     5  C    2.328826   2.722599   2.365378   1.350482   0.000000
     6  C    1.352093   2.363029   2.720809   2.322790   1.360802
     7  C    2.325569   3.581037   4.089432   3.615571   2.418208
     8  O    2.656939   3.996625   4.808125   4.595625   3.527077
     9  O    3.601534   4.767208   5.034854   4.256255   2.912264
    10  F    4.282679   4.907960   4.525231   3.346873   2.347980
    11  C    3.778361   4.242229   3.713572   2.442345   1.525329
    12  F    4.715634   4.862094   3.995806   2.663281   2.395659
    13  F    4.282750   4.908022   4.525283   3.346908   2.348051
    14  H    1.102962   2.059291   3.271732   3.733900   3.353221
    15  H    2.127888   1.103136   2.116666   3.309588   3.825714
    16  H    3.313565   2.118714   1.102876   2.126922   3.361864
    17  H    3.734480   3.277871   2.071561   1.102319   2.139134
    18  H    4.225159   5.480027   5.886333   5.189008   3.855801
                    6          7          8          9         10
     6  C    0.000000
     7  C    1.371908   0.000000
     8  O    2.273578   1.215009   0.000000
     9  O    2.412742   1.351523   2.133759   0.000000
    10  F    3.033158   3.126363   4.258767   2.601419   0.000000
    11  C    2.572288   3.035143   4.250134   2.804716   1.323876
    12  F    3.682333   4.333739   5.546677   4.107808   2.117488
    13  F    3.033225   3.126430   4.258857   2.601418   2.148201
    14  H    2.157756   2.592284   2.386220   3.943663   5.097115
    15  H    3.361186   4.453345   4.644341   5.716336   5.985651
    16  H    3.823643   5.192166   5.885344   6.120533   5.403992
    17  H    3.338098   4.546199   5.602209   4.980949   3.565253
    18  H    3.190391   1.903066   2.139861   0.970124   3.421201
                   11         12         13         14         15
    11  C    0.000000
    12  F    1.325021   0.000000
    13  F    1.323878   2.117582   0.000000
    14  H    4.719830   5.748479   5.097225   0.000000
    15  H    5.344928   5.927524   5.985714   2.364482   0.000000
    16  H    4.566901   4.591025   5.404024   4.173919   2.445853
    17  H    2.626044   2.266207   3.565285   4.833663   4.183017
    18  H    3.748983   5.033086   3.421217   4.347355   6.351216
                   16         17         18
    16  H    0.000000
    17  H    2.384094   0.000000
    18  H    6.983621   5.944468   0.000000
 Stoichiometry    C8H5F3O2
 Framework group  C1[X(C8H5F3O2)]
 Deg. of freedom    48
 Full point group                 C1      NOp   1
 Largest Abelian subgroup         C1      NOp   1
 Largest concise Abelian subgroup C1      NOp   1
                         Standard orientation:                         
 ---------------------------------------------------------------------
 Center     Atomic      Atomic             Coordinates (Angstroms)
 Number     Number       Type             X           Y           Z
 ---------------------------------------------------------------------
      1          6           0       -2.188156    0.225668    0.000003
      2          6           0       -2.709460   -1.008799    0.000016
      3          6           0       -1.886238   -2.061207    0.000020
      4          6           0       -0.564355   -1.847399    0.000033
      5          6           0       -0.015730   -0.613376   -0.000004
      6          6           0       -0.856001    0.457010    0.000009
      7          6           0       -0.446053    1.766236   -0.000004
      8          8           0       -1.222395    2.700870   -0.000059
      9          8           0        0.844035    2.169085    0.000054
     10          9           0        1.954956    0.076371   -1.074088
     11          6           0        1.508511   -0.555783    0.000024
     12          9           0        2.096879   -1.743008   -0.000089
     13          9           0        1.955025    0.076366    1.074113
     14          1           0       -2.934008    1.038213   -0.000090
     15          1           0       -3.802021   -1.161180    0.000017
     16          1           0       -2.293254   -3.086231    0.000059
     17          1           0        0.067140   -2.750904    0.000013
     18          1           0        0.872175    3.138801    0.000028
 ---------------------------------------------------------------------
 Rotational constants (GHZ):           1.0661840           0.8882720           0.5290374
 Standard basis: Aug-CC-pVTZ (5D, 7F)
 There are   840 symmetry adapted cartesian basis functions of A   symmetry.
 There are   713 symmetry adapted basis functions of A   symmetry.
   713 basis functions,  1071 primitive gaussians,   840 cartesian basis functions
    48 alpha electrons       48 beta electrons
       nuclear repulsion energy       847.5178746293 Hartrees.
 NAtoms=   18 NActive=   18 NUniq=   18 SFac= 1.00D+00 NAtFMM=   60 NAOKFM=F Big=F
 Integral buffers will be    131072 words long.
 Raffenetti 2 integral format.
 Two-electron integral symmetry is turned on.
 One-electron integrals computed using PRISM.
 NBasis=   713 RedAO= T EigKep=  1.12D-06  NBF=   713
 NBsUse=   709 1.00D-06 EigRej=  7.49D-07 NBFU=   709
 ExpMin= 2.53D-02 ExpMax= 1.95D+04 ExpMxC= 6.65D+02 IAcc=3 IRadAn=         5 AccDes= 0.00D+00
 Harris functional with IExCor= 1009 and IRadAn=       5 diagonalized for initial guess.
 HarFok:  IExCor= 1009 AccDes= 0.00D+00 IRadAn=         5 IDoV= 1 UseB2=F ITyADJ=14
 ICtDFT=  3500011 ScaDFX=  1.000000  1.000000  1.000000  1.000000
 FoFCou: FMM=F IPFlag=           0 FMFlag=      100000 FMFlg1=           0
         NFxFlg=           0 DoJE=T BraDBF=F KetDBF=T FulRan=T
         wScrn=  0.000000 ICntrl=       500 IOpCl=  0 I1Cent=   200000004 NGrid=           0
         NMat0=    1 NMatS0=      1 NMatT0=    0 NMatD0=    1 NMtDS0=    0 NMtDT0=    0
 Petite list used in FoFCou.
 Requested convergence on RMS density matrix=1.00D-08 within 128 cycles.
 Requested convergence on MAX density matrix=1.00D-06.
 Requested convergence on             energy=1.00D-06.
 No special actions if energy rises.
 SCF Done:  E(RM062X) =  -757.861139479     A.U. after   13 cycles
            NFock= 13  Conv=0.85D-08     -V/T= 2.0034

 **********************************************************************

            Population analysis using the SCF Density.

 **********************************************************************

 Orbital symmetries:
       Occupied  (A) (A) (A) (A) (A) (A) (A) (A) (A) (A) (A) (A)
                 (A) (A) (A) (A) (A) (A) (A) (A) (A) (A) (A) (A)
                 (A) (A) (A) (A) (A) (A) (A) (A) (A) (A) (A) (A)
                 (A) (A) (A) (A) (A) (A) (A) (A) (A) (A) (A) (A)
       Virtual   (A) (A) (A) (A) (A) (A) (A) (A) (A) (A) (A) (A)
                 (A) (A) (A) (A) (A) (A) (A) (A) (A) (A) (A) (A)
                 (A) (A) (A) (A) (A) (A) (A) (A) (A) (A) (A) (A)
                 (A) (A) (A) (A) (A) (A) (A) (A) (A) (A) (A) (A)
                 (A) (A) (A) (A) (A) (A) (A) (A) (A) (A) (A) (A)
                 (A) (A) (A) (A) (A) (A) (A) (A) (A) (A) (A) (A)
                 (A) (A) (A) (A) (A) (A) (A) (A) (A) (A) (A) (A)
                 (A) (A) (A) (A) (A) (A) (A) (A) (A) (A) (A) (A)
                 (A) (A) (A) (A) (A) (A) (A) (A) (A) (A) (A) (A)
                 (A) (A) (A) (A) (A) (A) (A) (A) (A) (A) (A) (A)
                 (A) (A) (A) (A) (A) (A) (A) (A) (A) (A) (A) (A)
                 (A) (A) (A) (A) (A) (A) (A) (A) (A) (A) (A) (A)
                 (A) (A) (A) (A) (A) (A) (A) (A) (A) (A) (A) (A)
                 (A) (A) (A) (A) (A) (A) (A) (A) (A) (A) (A) (A)
                 (A) (A) (A) (A) (A) (A) (A) (A) (A) (A) (A) (A)
                 (A) (A) (A) (A) (A) (A) (A) (A) (A) (A) (A) (A)
                 (A) (A) (A) (A) (A) (A) (A) (A) (A) (A) (A) (A)
                 (A) (A) (A) (A) (A) (A) (A) (A) (A) (A) (A) (A)
                 (A) (A) (A) (A) (A) (A) (A) (A) (A) (A) (A) (A)
                 (A) (A) (A) (A) (A) (A) (A) (A) (A) (A) (A) (A)
                 (A) (A) (A) (A) (A) (A) (A) (A) (A) (A) (A) (A)
                 (A) (A) (A) (A) (A) (A) (A) (A) (A) (A) (A) (A)
                 (A) (A) (A) (A) (A) (A) (A) (A) (A) (A) (A) (A)
                 (A) (A) (A) (A) (A) (A) (A) (A) (A) (A) (A) (A)
                 (A) (A) (A) (A) (A) (A) (A) (A) (A) (A) (A) (A)
                 (A) (A) (A) (A) (A) (A) (A) (A) (A) (A) (A) (A)
                 (A) (A) (A) (A) (A) (A) (A) (A) (A) (A) (A) (A)
                 (A) (A) (A) (A) (A) (A) (A) (A) (A) (A) (A) (A)
                 (A) (A) (A) (A) (A) (A) (A) (A) (A) (A) (A) (A)
                 (A) (A) (A) (A) (A) (A) (A) (A) (A) (A) (A) (A)
                 (A) (A) (A) (A) (A) (A) (A) (A) (A) (A) (A) (A)
                 (A) (A) (A) (A) (A) (A) (A) (A) (A) (A) (A) (A)
                 (A) (A) (A) (A) (A) (A) (A) (A) (A) (A) (A) (A)
                 (A) (A) (A) (A) (A) (A) (A) (A) (A) (A) (A) (A)
                 (A) (A) (A) (A) (A) (A) (A) (A) (A) (A) (A) (A)
                 (A) (A) (A) (A) (A) (A) (A) (A) (A) (A) (A) (A)
                 (A) (A) (A) (A) (A) (A) (A) (A) (A) (A) (A) (A)
                 (A) (A) (A) (A) (A) (A) (A) (A) (A) (A) (A) (A)
                 (A) (A) (A) (A) (A) (A) (A) (A) (A) (A) (A) (A)
                 (A) (A) (A) (A) (A) (A) (A) (A) (A) (A) (A) (A)
                 (A) (A) (A) (A) (A) (A) (A) (A) (A) (A) (A) (A)
                 (A) (A) (A) (A) (A) (A) (A) (A) (A) (A) (A) (A)
                 (A) (A) (A) (A) (A) (A) (A) (A) (A) (A) (A) (A)
                 (A) (A) (A) (A) (A) (A) (A) (A) (A) (A) (A) (A)
                 (A) (A) (A) (A) (A) (A) (A) (A) (A) (A) (A) (A)
                 (A) (A) (A) (A) (A) (A) (A) (A) (A) (A) (A) (A)
                 (A) (A) (A) (A) (A) (A) (A) (A) (A) (A) (A) (A)
                 (A) (A) (A) (A) (A) (A) (A) (A) (A) (A) (A) (A)
                 (A) (A) (A) (A) (A) (A) (A) (A) (A) (A) (A) (A)
                 (A) (A) (A) (A) (A) (A) (A) (A) (A) (A) (A) (A)
                 (A) (A) (A) (A) (A) (A) (A) (A) (A) (A) (A) (A)
                 (A) (A) (A) (A) (A) (A) (A) (A) (A) (A) (A) (A)
                 (A) (A) (A) (A) (A) (A) (A) (A) (A) (A) (A) (A)
                 (A) (A) (A) (A) (A) (A) (A) (A) (A) (A) (A) (A)
                 (A) (A) (A) (A) (A) (A) (A) (A) (A) (A) (A) (A)
                 (A)
 The electronic state is 1-A.
 Alpha  occ. eigenvalues --  -25.28725 -25.27706 -25.27704 -19.66669 -19.61156
 Alpha  occ. eigenvalues --  -10.80523 -10.68168 -10.59304 -10.58120 -10.56932
 Alpha  occ. eigenvalues --  -10.56920 -10.56751 -10.56388  -1.48240  -1.38453
 Alpha  occ. eigenvalues --   -1.38167  -1.24621  -1.13173  -1.03648  -0.92925
 Alpha  occ. eigenvalues --   -0.91003  -0.82848  -0.78782  -0.74677  -0.71206
 Alpha  occ. eigenvalues --   -0.70171  -0.69588  -0.68132  -0.62247  -0.59350
 Alpha  occ. eigenvalues --   -0.58733  -0.58664  -0.57132  -0.55751  -0.55649
 Alpha  occ. eigenvalues --   -0.54000  -0.53498  -0.51865  -0.51639  -0.49660
 Alpha  occ. eigenvalues --   -0.48803  -0.48497  -0.44359  -0.43086  -0.39995
 Alpha  occ. eigenvalues --   -0.36077  -0.35832  -0.34885
 Alpha virt. eigenvalues --   -0.05256  -0.01192  -0.00624   0.00240   0.00492
 Alpha virt. eigenvalues --    0.01797   0.02379   0.02935   0.03575   0.04756
 Alpha virt. eigenvalues --    0.04762   0.05259   0.05929   0.06762   0.07026
 Alpha virt. eigenvalues --    0.07283   0.07542   0.08157   0.08802   0.08948
 Alpha virt. eigenvalues --    0.09365   0.09743   0.09894   0.10110   0.10425
 Alpha virt. eigenvalues --    0.11707   0.11900   0.12338   0.12574   0.13962
 Alpha virt. eigenvalues --    0.14329   0.14822   0.15040   0.15586   0.16067
 Alpha virt. eigenvalues --    0.16641   0.17077   0.18205   0.18676   0.19056
 Alpha virt. eigenvalues --    0.19311   0.19483   0.19983   0.20282   0.20556
 Alpha virt. eigenvalues --    0.20696   0.20730   0.22330   0.22344   0.23052
 Alpha virt. eigenvalues --    0.23264   0.23666   0.24281   0.24705   0.25107
 Alpha virt. eigenvalues --    0.25565   0.26112   0.26250   0.26693   0.27555
 Alpha virt. eigenvalues --    0.27857   0.28226   0.28694   0.29002   0.29429
 Alpha virt. eigenvalues --    0.29929   0.30443   0.31058   0.31083   0.32524
 Alpha virt. eigenvalues --    0.32645   0.32851   0.33729   0.34169   0.34427
 Alpha virt. eigenvalues --    0.34971   0.35114   0.35828   0.36266   0.36529
 Alpha virt. eigenvalues --    0.36641   0.36646   0.37156   0.37745   0.38270
 Alpha virt. eigenvalues --    0.38955   0.39021   0.39270   0.39817   0.40489
 Alpha virt. eigenvalues --    0.41305   0.41621   0.42134   0.42557   0.42657
 Alpha virt. eigenvalues --    0.43550   0.43863   0.44539   0.45026   0.45320
 Alpha virt. eigenvalues --    0.45732   0.46244   0.47189   0.47344   0.47865
 Alpha virt. eigenvalues --    0.48454   0.49371   0.50090   0.50793   0.52827
 Alpha virt. eigenvalues --    0.53264   0.54091   0.54824   0.55540   0.56221
 Alpha virt. eigenvalues --    0.56303   0.56591   0.57855   0.57894   0.59051
 Alpha virt. eigenvalues --    0.59888   0.60351   0.60919   0.61567   0.62736
 Alpha virt. eigenvalues --    0.63530   0.64547   0.64752   0.65133   0.65333
 Alpha virt. eigenvalues --    0.66783   0.67776   0.69074   0.69523   0.70033
 Alpha virt. eigenvalues --    0.70164   0.70614   0.71361   0.71793   0.71962
 Alpha virt. eigenvalues --    0.73155   0.73817   0.74592   0.74635   0.75469
 Alpha virt. eigenvalues --    0.75606   0.76040   0.77078   0.77633   0.78114
 Alpha virt. eigenvalues --    0.78198   0.78937   0.79408   0.80446   0.81147
 Alpha virt. eigenvalues --    0.81734   0.81925   0.82121   0.83341   0.83919
 Alpha virt. eigenvalues --    0.84259   0.84445   0.85870   0.86205   0.86539
 Alpha virt. eigenvalues --    0.87147   0.87586   0.88128   0.88877   0.89448
 Alpha virt. eigenvalues --    0.90020   0.90848   0.91652   0.92159   0.92702
 Alpha virt. eigenvalues --    0.93009   0.94399   0.94780   0.95071   0.95592
 Alpha virt. eigenvalues --    0.95890   0.95895   0.96457   0.97676   0.98217
 Alpha virt. eigenvalues --    0.99495   1.00594   1.01008   1.01271   1.01972
 Alpha virt. eigenvalues --    1.02018   1.03615   1.03618   1.04429   1.04818
 Alpha virt. eigenvalues --    1.05513   1.05916   1.05979   1.06704   1.07063
 Alpha virt. eigenvalues --    1.08329   1.08948   1.09542   1.10092   1.11072
 Alpha virt. eigenvalues --    1.12536   1.12685   1.13442   1.14264   1.15087
 Alpha virt. eigenvalues --    1.15597   1.16137   1.17521   1.17521   1.20095
 Alpha virt. eigenvalues --    1.20501   1.21000   1.21059   1.21735   1.22996
 Alpha virt. eigenvalues --    1.23024   1.23821   1.24014   1.24882   1.25621
 Alpha virt. eigenvalues --    1.25770   1.26497   1.29038   1.29148   1.29308
 Alpha virt. eigenvalues --    1.29945   1.32226   1.32711   1.33522   1.33609
 Alpha virt. eigenvalues --    1.35357   1.35359   1.37519   1.38351   1.39438
 Alpha virt. eigenvalues --    1.39574   1.40339   1.41483   1.42154   1.43349
 Alpha virt. eigenvalues --    1.44686   1.45106   1.45232   1.47922   1.48665
 Alpha virt. eigenvalues --    1.49435   1.49859   1.50792   1.51345   1.51963
 Alpha virt. eigenvalues --    1.53112   1.53686   1.54685   1.54973   1.57631
 Alpha virt. eigenvalues --    1.57822   1.59904   1.60364   1.60563   1.61739
 Alpha virt. eigenvalues --    1.62768   1.62774   1.63062   1.65541   1.65571
 Alpha virt. eigenvalues --    1.65958   1.67078   1.67372   1.69102   1.69358
 Alpha virt. eigenvalues --    1.70505   1.70582   1.71829   1.73419   1.74315
 Alpha virt. eigenvalues --    1.74930   1.75283   1.76108   1.77144   1.78478
 Alpha virt. eigenvalues --    1.80711   1.80883   1.80901   1.81758   1.82728
 Alpha virt. eigenvalues --    1.83221   1.84298   1.84779   1.86513   1.86942
 Alpha virt. eigenvalues --    1.87531   1.88694   1.90374   1.90470   1.91808
 Alpha virt. eigenvalues --    1.92230   1.93822   1.94186   1.95110   1.97205
 Alpha virt. eigenvalues --    1.98470   1.99042   2.00456   2.01498   2.01838
 Alpha virt. eigenvalues --    2.01848   2.03095   2.04180   2.05899   2.06888
 Alpha virt. eigenvalues --    2.10523   2.10860   2.11619   2.13230   2.13288
 Alpha virt. eigenvalues --    2.14772   2.18014   2.19261   2.19859   2.22927
 Alpha virt. eigenvalues --    2.25112   2.25426   2.25929   2.26334   2.27960
 Alpha virt. eigenvalues --    2.28788   2.30990   2.33428   2.35321   2.35980
 Alpha virt. eigenvalues --    2.37115   2.37220   2.39412   2.41483   2.42423
 Alpha virt. eigenvalues --    2.43985   2.46583   2.47753   2.49611   2.51310
 Alpha virt. eigenvalues --    2.51635   2.52693   2.53701   2.55167   2.57163
 Alpha virt. eigenvalues --    2.59725   2.60833   2.61145   2.62069   2.63274
 Alpha virt. eigenvalues --    2.63615   2.65743   2.68266   2.70650   2.71778
 Alpha virt. eigenvalues --    2.74045   2.74182   2.74671   2.75228   2.77148
 Alpha virt. eigenvalues --    2.78795   2.79269   2.79868   2.80736   2.82917
 Alpha virt. eigenvalues --    2.83778   2.84668   2.85919   2.87173   2.89896
 Alpha virt. eigenvalues --    2.90927   2.92126   2.93855   2.94327   2.94859
 Alpha virt. eigenvalues --    2.96505   2.96729   2.97189   2.97405   3.00281
 Alpha virt. eigenvalues --    3.02668   3.02708   3.03412   3.05293   3.05867
 Alpha virt. eigenvalues --    3.06178   3.08138   3.09440   3.09889   3.10694
 Alpha virt. eigenvalues --    3.11632   3.11865   3.13505   3.13824   3.15380
 Alpha virt. eigenvalues --    3.16017   3.17882   3.18118   3.18550   3.20682
 Alpha virt. eigenvalues --    3.21836   3.22601   3.23001   3.23226   3.24195
 Alpha virt. eigenvalues --    3.24948   3.25887   3.27352   3.29501   3.29674
 Alpha virt. eigenvalues --    3.31606   3.32485   3.33312   3.35149   3.36032
 Alpha virt. eigenvalues --    3.36292   3.36706   3.37864   3.38313   3.39990
 Alpha virt. eigenvalues --    3.41565   3.43882   3.43993   3.44259   3.45611
 Alpha virt. eigenvalues --    3.48143   3.48299   3.50328   3.50862   3.51182
 Alpha virt. eigenvalues --    3.52102   3.52367   3.53138   3.55626   3.56502
 Alpha virt. eigenvalues --    3.56990   3.57504   3.59115   3.59510   3.62802
 Alpha virt. eigenvalues --    3.63916   3.64341   3.65450   3.65788   3.67004
 Alpha virt. eigenvalues --    3.67487   3.68195   3.69337   3.71676   3.73416
 Alpha virt. eigenvalues --    3.75898   3.75909   3.77145   3.77752   3.77824
 Alpha virt. eigenvalues --    3.79530   3.80992   3.81711   3.83799   3.84307
 Alpha virt. eigenvalues --    3.85160   3.86519   3.87669   3.88017   3.88752
 Alpha virt. eigenvalues --    3.89228   3.90256   3.91748   3.91952   3.93016
 Alpha virt. eigenvalues --    3.95011   3.96418   3.97069   3.97717   4.00751
 Alpha virt. eigenvalues --    4.01227   4.03242   4.03671   4.04334   4.05888
 Alpha virt. eigenvalues --    4.06627   4.08006   4.08612   4.11191   4.12907
 Alpha virt. eigenvalues --    4.14208   4.15129   4.17126   4.18582   4.19786
 Alpha virt. eigenvalues --    4.21307   4.23018   4.24321   4.24880   4.27441
 Alpha virt. eigenvalues --    4.27909   4.28583   4.31709   4.33274   4.34875
 Alpha virt. eigenvalues --    4.36622   4.36702   4.38794   4.40577   4.41068
 Alpha virt. eigenvalues --    4.41288   4.44592   4.44687   4.45678   4.47591
 Alpha virt. eigenvalues --    4.50689   4.53003   4.55560   4.57503   4.60188
 Alpha virt. eigenvalues --    4.60305   4.61680   4.62148   4.63656   4.64116
 Alpha virt. eigenvalues --    4.64619   4.66989   4.67366   4.68786   4.70209
 Alpha virt. eigenvalues --    4.72261   4.72919   4.75408   4.76673   4.77904
 Alpha virt. eigenvalues --    4.80973   4.81716   4.82183   4.83671   4.89047
 Alpha virt. eigenvalues --    4.91460   4.92561   4.94651   4.96586   5.00385
 Alpha virt. eigenvalues --    5.01337   5.04508   5.04781   5.05862   5.06532
 Alpha virt. eigenvalues --    5.11627   5.11656   5.16134   5.21241   5.26626
 Alpha virt. eigenvalues --    5.30891   5.37018   5.37610   5.40251   5.41837
 Alpha virt. eigenvalues --    5.45200   5.46640   5.52891   5.54965   5.55634
 Alpha virt. eigenvalues --    5.58011   5.62416   5.66847   5.73145   5.77045
 Alpha virt. eigenvalues --    5.79935   5.86276   5.86924   5.89736   5.95588
 Alpha virt. eigenvalues --    6.04336   6.06789   6.10905   6.23243   6.25754
 Alpha virt. eigenvalues --    6.26117   6.32476   6.41446   6.42659   6.44847
 Alpha virt. eigenvalues --    6.47061   6.49376   6.56188   6.62210   6.62852
 Alpha virt. eigenvalues --    6.71396   6.72568   6.75692   6.81146   6.81357
 Alpha virt. eigenvalues --    6.83875   6.87775   6.89371   6.93222   6.94031
 Alpha virt. eigenvalues --    7.02888   7.09657   7.11503   7.16635   7.18384
 Alpha virt. eigenvalues --    7.18982   7.32261   7.40447   7.54986   7.70736
 Alpha virt. eigenvalues --    7.91497   8.07330   8.46757   8.47691   8.48043
 Alpha virt. eigenvalues --    8.53213   8.55129   8.63025   8.65712   8.68976
 Alpha virt. eigenvalues --    8.77468   8.80711   8.81867   8.83016   8.83339
 Alpha virt. eigenvalues --    8.86324   8.87298   8.89676   8.90222   8.93711
 Alpha virt. eigenvalues --    8.94936   8.95817   8.97184   8.98887   9.02659
 Alpha virt. eigenvalues --    9.04566   9.07979   9.11521   9.14371   9.14453
 Alpha virt. eigenvalues --    9.17937   9.18049   9.23570   9.38127   9.38141
 Alpha virt. eigenvalues --    9.45042   9.56564   9.63640  15.59213  15.64283
 Alpha virt. eigenvalues --   15.68570  16.19864  16.39145  17.12867  17.70729
 Alpha virt. eigenvalues --   18.18250  19.08962  19.32521  20.08314  20.60731
 Alpha virt. eigenvalues --   20.69884
          Condensed to atoms (all electrons):
               1          2          3          4          5          6
     1  C    9.092990  -0.267664  -0.123136  -0.535778   0.065794  -0.769287
     2  C   -0.267664   6.961180  -0.090539   0.031333  -0.421121   0.016457
     3  C   -0.123136  -0.090539   6.663745  -0.219501   0.057821  -0.196383
     4  C   -0.535778   0.031333  -0.219501   7.987894  -0.429061  -0.169571
     5  C    0.065794  -0.421121   0.057821  -0.429061   8.127481  -1.235790
     6  C   -0.769287   0.016457  -0.196383  -0.169571  -1.235790   7.760538
     7  C   -0.787616   0.190976   0.031412   0.199860  -0.643700  -0.479803
     8  O    0.126124  -0.046564   0.004897  -0.007156   0.080188  -0.218732
     9  O    0.002962  -0.003787   0.002916  -0.004438  -0.066073  -0.140622
    10  F    0.012385  -0.008102   0.013122  -0.026623   0.067949  -0.037281
    11  C    0.140073  -0.020119   0.056899  -0.371792  -0.117225  -0.248318
    12  F   -0.010677  -0.001732  -0.003380  -0.036300  -0.046069   0.023164
    13  F    0.012387  -0.008099   0.013126  -0.026600   0.068030  -0.037289
    14  H   -0.015397  -0.206752   0.034710  -0.010061  -0.028977  -0.031901
    15  H   -0.181863   0.458328  -0.181116   0.061831  -0.060009  -0.021166
    16  H    0.077016  -0.279383   0.487399  -0.217780   0.067268  -0.080095
    17  H   -0.021715   0.059924  -0.284901   0.433759  -0.150274  -0.010832
    18  H   -0.020273   0.003214  -0.001829   0.001136  -0.034803   0.055373
               7          8          9         10         11         12
     1  C   -0.787616   0.126124   0.002962   0.012385   0.140073  -0.010677
     2  C    0.190976  -0.046564  -0.003787  -0.008102  -0.020119  -0.001732
     3  C    0.031412   0.004897   0.002916   0.013122   0.056899  -0.003380
     4  C    0.199860  -0.007156  -0.004438  -0.026623  -0.371792  -0.036300
     5  C   -0.643700   0.080188  -0.066073   0.067949  -0.117225  -0.046069
     6  C   -0.479803  -0.218732  -0.140622  -0.037281  -0.248318   0.023164
     7  C    7.534281  -0.083806   0.211186  -0.023714  -0.250177   0.025222
     8  O   -0.083806   9.395989  -0.180420   0.000861   0.015193  -0.000277
     9  O    0.211186  -0.180420   8.575566  -0.033938   0.004625   0.006357
    10  F   -0.023714   0.000861  -0.033938   9.296710   0.198060  -0.126789
    11  C   -0.250177   0.015193   0.004625   0.198060   5.408391   0.236734
    12  F    0.025222  -0.000277   0.006357  -0.126789   0.236734   9.409056
    13  F   -0.023700   0.000858  -0.033941  -0.017438   0.197966  -0.126798
    14  H    0.179750  -0.062948   0.003386  -0.000925   0.000155  -0.000304
    15  H    0.013117  -0.002096  -0.000487  -0.000437   0.000229   0.000374
    16  H   -0.012942   0.000262  -0.000077   0.000683   0.001782  -0.001482
    17  H    0.012699   0.000039   0.002139   0.009319  -0.037699  -0.045823
    18  H    0.031676  -0.085964   0.171304   0.000154  -0.009076   0.000183
              13         14         15         16         17         18
     1  C    0.012387  -0.015397  -0.181863   0.077016  -0.021715  -0.020273
     2  C   -0.008099  -0.206752   0.458328  -0.279383   0.059924   0.003214
     3  C    0.013126   0.034710  -0.181116   0.487399  -0.284901  -0.001829
     4  C   -0.026600  -0.010061   0.061831  -0.217780   0.433759   0.001136
     5  C    0.068030  -0.028977  -0.060009   0.067268  -0.150274  -0.034803
     6  C   -0.037289  -0.031901  -0.021166  -0.080095  -0.010832   0.055373
     7  C   -0.023700   0.179750   0.013117  -0.012942   0.012699   0.031676
     8  O    0.000858  -0.062948  -0.002096   0.000262   0.000039  -0.085964
     9  O   -0.033941   0.003386  -0.000487  -0.000077   0.002139   0.171304
    10  F   -0.017438  -0.000925  -0.000437   0.000683   0.009319   0.000154
    11  C    0.197966   0.000155   0.000229   0.001782  -0.037699  -0.009076
    12  F   -0.126798  -0.000304   0.000374  -0.001482  -0.045823   0.000183
    13  F    9.296686  -0.000925  -0.000437   0.000684   0.009308   0.000156
    14  H   -0.000925   0.886368  -0.047924  -0.011683   0.004737   0.000790
    15  H   -0.000437  -0.047924   0.734494  -0.001943  -0.012160   0.000302
    16  H    0.000684  -0.011683  -0.001943   0.726824  -0.032380  -0.000133
    17  H    0.009308   0.004737  -0.012160  -0.032380   0.866456  -0.000294
    18  H    0.000156   0.000790   0.000302  -0.000133  -0.000294   0.607490
 Mulliken charges:
               1
     1  C   -0.796326
     2  C   -0.367551
     3  C   -0.265260
     4  C   -0.661153
     5  C    0.698570
     6  C    1.821538
     7  C   -0.124721
     8  O   -0.936449
     9  O   -0.516657
    10  F   -0.323993
    11  C    0.794298
    12  F   -0.301459
    13  F   -0.323972
    14  H    0.307900
    15  H    0.240963
    16  H    0.275981
    17  H    0.197697
    18  H    0.280595
 Sum of Mulliken charges =   0.00000
 Mulliken charges with hydrogens summed into heavy atoms:
               1
     1  C   -0.488425
     2  C   -0.126589
     3  C    0.010721
     4  C   -0.463456
     5  C    0.698570
     6  C    1.821538
     7  C   -0.124721
     8  O   -0.936449
     9  O   -0.236061
    10  F   -0.323993
    11  C    0.794298
    12  F   -0.301459
    13  F   -0.323972
 Electronic spatial extent (au):  <R**2>=           2015.8822
 Charge=              0.0000 electrons
 Dipole moment (field-independent basis, Debye):
    X=             -2.1160    Y=             -2.3425    Z=              0.0002  Tot=              3.1567
 Quadrupole moment (field-independent basis, Debye-Ang):
   XX=            -69.6803   YY=            -68.0258   ZZ=            -73.9861
   XY=              9.6884   XZ=              0.0002   YZ=              0.0000
 Traceless Quadrupole moment (field-independent basis, Debye-Ang):
   XX=              0.8838   YY=              2.5383   ZZ=             -3.4220
   XY=              9.6884   XZ=              0.0002   YZ=              0.0000
 Octapole moment (field-independent basis, Debye-Ang**2):
  XXX=              9.6999  YYY=             -5.0721  ZZZ=             -0.0007  XYY=             29.2820
  XXY=             -8.3440  XXZ=              0.0000  XZZ=             15.6838  YZZ=              5.2145
  YYZ=              0.0012  XYZ=             -0.0003
 Hexadecapole moment (field-independent basis, Debye-Ang**3):
 XXXX=          -1121.2106 YYYY=           -976.2809 ZZZZ=           -137.5679 XXXY=             13.2226
 XXXZ=              0.0017 YYYX=             95.1785 YYYZ=              0.0033 ZZZX=              0.0002
 ZZZY=              0.0013 XXYY=           -376.6316 XXZZ=           -240.9560 YYZZ=           -205.1788
 XXYZ=             -0.0010 YYXZ=             -0.0017 ZZXY=            -13.4919
 N-N= 8.475178746293D+02 E-N=-3.479259700497D+03  KE= 7.552845731392D+02
 ******************************Gaussian NBO Version 3.1******************************
             N A T U R A L   A T O M I C   O R B I T A L   A N D
          N A T U R A L   B O N D   O R B I T A L   A N A L Y S I S
 ******************************Gaussian NBO Version 3.1******************************
       /RESON  / : Allow strongly delocalized NBO set

 Analyzing the SCF density

 Job title: o-CF3                                                           

 Storage needed:   1528079 in NPA,   2035985 in NBO (********** available)
 GSVD:  LWork=       20305 too small for GESVD, short by      951395 words or      951395 for optimal perf.


 NATURAL POPULATIONS:  Natural atomic orbital occupancies 
                                                          
   NAO  Atom  No  lang   Type(AO)    Occupancy      Energy
 ----------------------------------------------------------
     1    C    1  S      Cor( 1S)     1.99911     -10.40131
     2    C    1  S      Val( 2S)     0.94308      -0.19771
     3    C    1  S      Ryd( 4S)     0.00158       1.89235
     4    C    1  S      Ryd( 5S)     0.00013       2.83521
     5    C    1  S      Ryd( 3S)     0.00002       1.79953
     6    C    1  px     Val( 2p)     1.08634      -0.07349
     7    C    1  px     Ryd( 4p)     0.00419       1.83956
     8    C    1  px     Ryd( 5p)     0.00003       2.02819
     9    C    1  px     Ryd( 3p)     0.00005       1.36784
    10    C    1  py     Val( 2p)     1.14009      -0.09480
    11    C    1  py     Ryd( 4p)     0.00461       1.91764
    12    C    1  py     Ryd( 5p)     0.00008       2.43381
    13    C    1  py     Ryd( 3p)     0.00011       1.55990
    14    C    1  pz     Val( 2p)     0.92702      -0.13445
    15    C    1  pz     Ryd( 4p)     0.00069       1.02130
    16    C    1  pz     Ryd( 5p)     0.00007       1.34015
    17    C    1  pz     Ryd( 3p)     0.00001       0.92892
    18    C    1  dxy    Ryd( 3d)     0.00184       2.33516
    19    C    1  dxy    Ryd( 4d)     0.00012       3.79439
    20    C    1  dxy    Ryd( 5d)     0.00008       4.14992
    21    C    1  dxz    Ryd( 3d)     0.00027       1.38221
    22    C    1  dxz    Ryd( 5d)     0.00008       3.09564
    23    C    1  dxz    Ryd( 4d)     0.00003       1.92527
    24    C    1  dyz    Ryd( 3d)     0.00043       1.47979
    25    C    1  dyz    Ryd( 5d)     0.00003       3.09277
    26    C    1  dyz    Ryd( 4d)     0.00003       1.89482
    27    C    1  dx2y2  Ryd( 4d)     0.00184       3.80194
    28    C    1  dx2y2  Ryd( 5d)     0.00024       4.05675
    29    C    1  dx2y2  Ryd( 3d)     0.00007       2.69717
    30    C    1  dz2    Ryd( 3d)     0.00094       1.72162
    31    C    1  dz2    Ryd( 4d)     0.00010       4.01263
    32    C    1  dz2    Ryd( 5d)     0.00007       4.31010
    33    C    1  f(0)   Ryd( 4f)     0.00011       1.51110
    34    C    1  f(0)   Ryd( 5f)     0.00009       3.37487
    35    C    1  f(C1)  Ryd( 4f)     0.00050       1.85479
    36    C    1  f(C1)  Ryd( 5f)     0.00016       3.60190
    37    C    1  f(S1)  Ryd( 4f)     0.00043       1.97786
    38    C    1  f(S1)  Ryd( 5f)     0.00019       3.61615
    39    C    1  f(C2)  Ryd( 4f)     0.00022       1.48317
    40    C    1  f(C2)  Ryd( 5f)     0.00002       3.42879
    41    C    1  f(S2)  Ryd( 4f)     0.00016       1.64953
    42    C    1  f(S2)  Ryd( 5f)     0.00006       3.41333
    43    C    1  f(C3)  Ryd( 4f)     0.00054       2.59990
    44    C    1  f(C3)  Ryd( 5f)     0.00016       4.08373
    45    C    1  f(S3)  Ryd( 4f)     0.00095       2.22260
    46    C    1  f(S3)  Ryd( 5f)     0.00016       4.16315
 
    47    C    2  S      Cor( 1S)     1.99909     -10.39411
    48    C    2  S      Val( 2S)     0.94888      -0.20765
    49    C    2  S      Ryd( 3S)     0.00135       1.91547
    50    C    2  S      Ryd( 5S)     0.00006       2.86616
    51    C    2  S      Ryd( 4S)     0.00002       1.94894
    52    C    2  px     Val( 2p)     1.18398      -0.10510
    53    C    2  px     Ryd( 5p)     0.00495       1.71872
    54    C    2  px     Ryd( 3p)     0.00003       1.65446
    55    C    2  px     Ryd( 4p)     0.00003       1.66744
    56    C    2  py     Val( 2p)     1.06756      -0.08397
    57    C    2  py     Ryd( 5p)     0.00393       1.72227
    58    C    2  py     Ryd( 3p)     0.00005       1.15967
    59    C    2  py     Ryd( 4p)     0.00001       1.32601
    60    C    2  pz     Val( 2p)     0.97625      -0.13920
    61    C    2  pz     Ryd( 3p)     0.00061       1.02433
    62    C    2  pz     Ryd( 4p)     0.00000       1.06274
    63    C    2  pz     Ryd( 5p)     0.00003       1.07424
    64    C    2  dxy    Ryd( 4d)     0.00222       3.27638
    65    C    2  dxy    Ryd( 5d)     0.00028       3.50798
    66    C    2  dxy    Ryd( 3d)     0.00005       2.33255
    67    C    2  dxz    Ryd( 3d)     0.00031       1.45992
    68    C    2  dxz    Ryd( 5d)     0.00005       2.78484
    69    C    2  dxz    Ryd( 4d)     0.00002       1.64498
    70    C    2  dyz    Ryd( 3d)     0.00037       1.50568
    71    C    2  dyz    Ryd( 5d)     0.00001       2.72783
    72    C    2  dyz    Ryd( 4d)     0.00001       1.88847
    73    C    2  dx2y2  Ryd( 3d)     0.00182       2.38416
    74    C    2  dx2y2  Ryd( 5d)     0.00016       3.52695
    75    C    2  dx2y2  Ryd( 4d)     0.00006       2.87333
    76    C    2  dz2    Ryd( 3d)     0.00102       1.79923
    77    C    2  dz2    Ryd( 5d)     0.00008       4.05911
    78    C    2  dz2    Ryd( 4d)     0.00010       3.30477
    79    C    2  f(0)   Ryd( 5f)     0.00011       3.47727
    80    C    2  f(0)   Ryd( 4f)     0.00001       2.15600
    81    C    2  f(C1)  Ryd( 5f)     0.00017       3.68331
    82    C    2  f(C1)  Ryd( 4f)     0.00003       2.78314
    83    C    2  f(S1)  Ryd( 5f)     0.00027       3.76229
    84    C    2  f(S1)  Ryd( 4f)     0.00001       2.79125
    85    C    2  f(C2)  Ryd( 5f)     0.00001       3.65985
    86    C    2  f(C2)  Ryd( 4f)     0.00001       2.20831
    87    C    2  f(S2)  Ryd( 5f)     0.00001       3.56752
    88    C    2  f(S2)  Ryd( 4f)     0.00002       2.37281
    89    C    2  f(C3)  Ryd( 4f)     0.00013       4.24072
    90    C    2  f(C3)  Ryd( 5f)     0.00006       5.34028
    91    C    2  f(S3)  Ryd( 5f)     0.00010       4.32897
    92    C    2  f(S3)  Ryd( 4f)     0.00010       4.20656
 
    93    C    3  S      Cor( 1S)     1.99908     -10.39800
    94    C    3  S      Val( 2S)     0.94916      -0.21054
    95    C    3  S      Ryd( 3S)     0.00134       1.93603
    96    C    3  S      Ryd( 5S)     0.00006       2.68774
    97    C    3  S      Ryd( 4S)     0.00002       2.20147
    98    C    3  px     Val( 2p)     1.07914      -0.08643
    99    C    3  px     Ryd( 5p)     0.00414       1.71850
   100    C    3  px     Ryd( 3p)     0.00004       1.19267
   101    C    3  px     Ryd( 4p)     0.00002       1.37081
   102    C    3  py     Val( 2p)     1.16931      -0.10361
   103    C    3  py     Ryd( 5p)     0.00514       1.70793
   104    C    3  py     Ryd( 3p)     0.00003       1.59956
   105    C    3  py     Ryd( 4p)     0.00003       1.68244
   106    C    3  pz     Val( 2p)     0.94771      -0.13881
   107    C    3  pz     Ryd( 3p)     0.00064       1.01176
   108    C    3  pz     Ryd( 4p)     0.00001       1.04634
   109    C    3  pz     Ryd( 5p)     0.00003       1.11600
   110    C    3  dxy    Ryd( 4d)     0.00201       2.89799
   111    C    3  dxy    Ryd( 5d)     0.00029       3.58591
   112    C    3  dxy    Ryd( 3d)     0.00005       2.49170
   113    C    3  dxz    Ryd( 3d)     0.00038       1.48986
   114    C    3  dxz    Ryd( 5d)     0.00001       2.82518
   115    C    3  dxz    Ryd( 4d)     0.00001       1.77141
   116    C    3  dyz    Ryd( 3d)     0.00034       1.45668
   117    C    3  dyz    Ryd( 5d)     0.00005       2.85590
   118    C    3  dyz    Ryd( 4d)     0.00001       1.61876
   119    C    3  dx2y2  Ryd( 4d)     0.00202       2.94377
   120    C    3  dx2y2  Ryd( 5d)     0.00018       3.71797
   121    C    3  dx2y2  Ryd( 3d)     0.00004       2.43505
   122    C    3  dz2    Ryd( 3d)     0.00104       1.81129
   123    C    3  dz2    Ryd( 5d)     0.00007       4.09709
   124    C    3  dz2    Ryd( 4d)     0.00011       3.36965
   125    C    3  f(0)   Ryd( 5f)     0.00010       3.47462
   126    C    3  f(0)   Ryd( 4f)     0.00001       2.16934
   127    C    3  f(C1)  Ryd( 5f)     0.00024       3.74816
   128    C    3  f(C1)  Ryd( 4f)     0.00001       2.72074
   129    C    3  f(S1)  Ryd( 5f)     0.00019       3.68767
   130    C    3  f(S1)  Ryd( 4f)     0.00003       2.85433
   131    C    3  f(C2)  Ryd( 5f)     0.00001       3.61908
   132    C    3  f(C2)  Ryd( 4f)     0.00001       2.22497
   133    C    3  f(S2)  Ryd( 5f)     0.00001       3.61330
   134    C    3  f(S2)  Ryd( 4f)     0.00001       2.37127
   135    C    3  f(C3)  Ryd( 4f)     0.00014       4.27287
   136    C    3  f(C3)  Ryd( 5f)     0.00005       5.36345
   137    C    3  f(S3)  Ryd( 5f)     0.00009       4.32936
   138    C    3  f(S3)  Ryd( 4f)     0.00011       4.22333
 
   139    C    4  S      Cor( 1S)     1.99909     -10.39915
   140    C    4  S      Val( 2S)     0.94151      -0.20402
   141    C    4  S      Ryd( 3S)     0.00153       1.92743
   142    C    4  S      Ryd( 5S)     0.00012       2.89650
   143    C    4  S      Ryd( 4S)     0.00002       2.06446
   144    C    4  px     Val( 2p)     1.11437      -0.09839
   145    C    4  px     Ryd( 5p)     0.00381       1.94462
   146    C    4  px     Ryd( 3p)     0.00014       1.71185
   147    C    4  px     Ryd( 4p)     0.00006       1.76996
   148    C    4  py     Val( 2p)     1.13906      -0.09916
   149    C    4  py     Ryd( 5p)     0.00437       1.81761
   150    C    4  py     Ryd( 3p)     0.00008       1.58543
   151    C    4  py     Ryd( 4p)     0.00003       1.80224
   152    C    4  pz     Val( 2p)     0.98311      -0.14270
   153    C    4  pz     Ryd( 3p)     0.00077       1.00097
   154    C    4  pz     Ryd( 4p)     0.00003       1.06763
   155    C    4  pz     Ryd( 5p)     0.00007       1.19135
   156    C    4  dxy    Ryd( 3d)     0.00185       2.26621
   157    C    4  dxy    Ryd( 5d)     0.00013       3.90779
   158    C    4  dxy    Ryd( 4d)     0.00008       3.30538
   159    C    4  dxz    Ryd( 3d)     0.00046       1.41143
   160    C    4  dxz    Ryd( 5d)     0.00006       3.17576
   161    C    4  dxz    Ryd( 4d)     0.00005       1.92723
   162    C    4  dyz    Ryd( 3d)     0.00035       1.31618
   163    C    4  dyz    Ryd( 5d)     0.00007       3.25911
   164    C    4  dyz    Ryd( 4d)     0.00004       1.48043
   165    C    4  dx2y2  Ryd( 4d)     0.00206       3.56334
   166    C    4  dx2y2  Ryd( 5d)     0.00024       4.21507
   167    C    4  dx2y2  Ryd( 3d)     0.00008       2.53521
   168    C    4  dz2    Ryd( 3d)     0.00110       1.69849
   169    C    4  dz2    Ryd( 4d)     0.00009       4.06019
   170    C    4  dz2    Ryd( 5d)     0.00009       4.44499
   171    C    4  f(0)   Ryd( 4f)     0.00019       1.57995
   172    C    4  f(0)   Ryd( 5f)     0.00009       3.28036
   173    C    4  f(C1)  Ryd( 4f)     0.00051       2.07772
   174    C    4  f(C1)  Ryd( 5f)     0.00017       3.57981
   175    C    4  f(S1)  Ryd( 4f)     0.00062       1.91514
   176    C    4  f(S1)  Ryd( 5f)     0.00011       3.45146
   177    C    4  f(C2)  Ryd( 4f)     0.00017       1.64915
   178    C    4  f(C2)  Ryd( 5f)     0.00004       3.28628
   179    C    4  f(S2)  Ryd( 4f)     0.00020       1.64948
   180    C    4  f(S2)  Ryd( 5f)     0.00008       3.30766
   181    C    4  f(C3)  Ryd( 4f)     0.00060       2.77097
   182    C    4  f(C3)  Ryd( 5f)     0.00016       3.91332
   183    C    4  f(S3)  Ryd( 4f)     0.00079       2.22884
   184    C    4  f(S3)  Ryd( 5f)     0.00025       4.01528
 
   185    C    5  S      Cor( 1S)     1.99879     -10.43284
   186    C    5  S      Val( 2S)     0.90902      -0.18276
   187    C    5  S      Ryd( 3S)     0.00117       2.03342
   188    C    5  S      Ryd( 4S)     0.00011       2.40671
   189    C    5  S      Ryd( 5S)     0.00003       3.43696
   190    C    5  px     Val( 2p)     1.03835      -0.11821
   191    C    5  px     Ryd( 4p)     0.00532       2.57973
   192    C    5  px     Ryd( 3p)     0.00013       1.71320
   193    C    5  px     Ryd( 5p)     0.00008       3.37129
   194    C    5  py     Val( 2p)     1.08705      -0.10449
   195    C    5  py     Ryd( 4p)     0.00355       2.02501
   196    C    5  py     Ryd( 3p)     0.00008       1.31566
   197    C    5  py     Ryd( 5p)     0.00005       2.51263
   198    C    5  pz     Val( 2p)     1.01055      -0.15576
   199    C    5  pz     Ryd( 3p)     0.00216       1.00622
   200    C    5  pz     Ryd( 4p)     0.00008       1.16269
   201    C    5  pz     Ryd( 5p)     0.00013       1.49552
   202    C    5  dxy    Ryd( 3d)     0.00085       3.32306
   203    C    5  dxy    Ryd( 4d)     0.00052       4.01923
   204    C    5  dxy    Ryd( 5d)     0.00005       4.88069
   205    C    5  dxz    Ryd( 3d)     0.00028       1.47659
   206    C    5  dxz    Ryd( 5d)     0.00025       3.18478
   207    C    5  dxz    Ryd( 4d)     0.00004       2.43036
   208    C    5  dyz    Ryd( 3d)     0.00048       1.28237
   209    C    5  dyz    Ryd( 5d)     0.00008       3.16566
   210    C    5  dyz    Ryd( 4d)     0.00002       2.34039
   211    C    5  dx2y2  Ryd( 3d)     0.00172       3.14531
   212    C    5  dx2y2  Ryd( 5d)     0.00031       4.09481
   213    C    5  dx2y2  Ryd( 4d)     0.00005       3.84691
   214    C    5  dz2    Ryd( 3d)     0.00104       1.64851
   215    C    5  dz2    Ryd( 4d)     0.00012       3.92389
   216    C    5  dz2    Ryd( 5d)     0.00007       4.17240
   217    C    5  f(0)   Ryd( 4f)     0.00064       1.44447
   218    C    5  f(0)   Ryd( 5f)     0.00018       3.62857
   219    C    5  f(C1)  Ryd( 4f)     0.00081       2.07207
   220    C    5  f(C1)  Ryd( 5f)     0.00033       3.71634
   221    C    5  f(S1)  Ryd( 4f)     0.00078       1.87519
   222    C    5  f(S1)  Ryd( 5f)     0.00026       3.79613
   223    C    5  f(C2)  Ryd( 4f)     0.00074       1.29316
   224    C    5  f(C2)  Ryd( 5f)     0.00002       3.72607
   225    C    5  f(S2)  Ryd( 4f)     0.00087       1.25849
   226    C    5  f(S2)  Ryd( 5f)     0.00002       3.72294
   227    C    5  f(C3)  Ryd( 4f)     0.00114       3.12962
   228    C    5  f(C3)  Ryd( 5f)     0.00019       4.29809
   229    C    5  f(S3)  Ryd( 4f)     0.00308       2.06141
   230    C    5  f(S3)  Ryd( 5f)     0.00015       4.64070
 
   231    C    6  S      Cor( 1S)     1.99879     -10.40259
   232    C    6  S      Val( 2S)     0.88487      -0.13816
   233    C    6  S      Ryd( 3S)     0.00109       2.09719
   234    C    6  S      Ryd( 4S)     0.00010       2.38117
   235    C    6  S      Ryd( 5S)     0.00003       3.88726
   236    C    6  px     Val( 2p)     1.13200      -0.12684
   237    C    6  px     Ryd( 4p)     0.00491       2.26090
   238    C    6  px     Ryd( 5p)     0.00011       2.47624
   239    C    6  px     Ryd( 3p)     0.00005       1.35967
   240    C    6  py     Val( 2p)     1.09596      -0.12386
   241    C    6  py     Ryd( 5p)     0.00565       2.63078
   242    C    6  py     Ryd( 4p)     0.00006       2.38132
   243    C    6  py     Ryd( 3p)     0.00006       1.59686
   244    C    6  pz     Val( 2p)     1.05957      -0.15507
   245    C    6  pz     Ryd( 4p)     0.00125       1.00129
   246    C    6  pz     Ryd( 5p)     0.00011       1.98445
   247    C    6  pz     Ryd( 3p)     0.00006       0.74160
   248    C    6  dxy    Ryd( 3d)     0.00114       2.96841
   249    C    6  dxy    Ryd( 4d)     0.00036       3.71330
   250    C    6  dxy    Ryd( 5d)     0.00003       5.57524
   251    C    6  dxz    Ryd( 3d)     0.00037       1.51161
   252    C    6  dxz    Ryd( 5d)     0.00012       2.87272
   253    C    6  dxz    Ryd( 4d)     0.00004       2.65398
   254    C    6  dyz    Ryd( 3d)     0.00017       1.63192
   255    C    6  dyz    Ryd( 5d)     0.00010       2.94485
   256    C    6  dyz    Ryd( 4d)     0.00004       2.48532
   257    C    6  dx2y2  Ryd( 3d)     0.00135       3.30316
   258    C    6  dx2y2  Ryd( 4d)     0.00021       4.01837
   259    C    6  dx2y2  Ryd( 5d)     0.00004       5.63517
   260    C    6  dz2    Ryd( 3d)     0.00079       1.77293
   261    C    6  dz2    Ryd( 4d)     0.00018       3.64869
   262    C    6  dz2    Ryd( 5d)     0.00005       4.30914
   263    C    6  f(0)   Ryd( 4f)     0.00034       1.60252
   264    C    6  f(0)   Ryd( 5f)     0.00031       3.51991
   265    C    6  f(C1)  Ryd( 4f)     0.00077       2.11402
   266    C    6  f(C1)  Ryd( 5f)     0.00031       3.76126
   267    C    6  f(S1)  Ryd( 4f)     0.00047       2.20200
   268    C    6  f(S1)  Ryd( 5f)     0.00046       3.70581
   269    C    6  f(C2)  Ryd( 4f)     0.00059       1.50142
   270    C    6  f(C2)  Ryd( 5f)     0.00004       3.53220
   271    C    6  f(S2)  Ryd( 4f)     0.00076       1.45053
   272    C    6  f(S2)  Ryd( 5f)     0.00004       3.49665
   273    C    6  f(C3)  Ryd( 4f)     0.00149       3.38220
   274    C    6  f(C3)  Ryd( 5f)     0.00012       4.59140
   275    C    6  f(S3)  Ryd( 4f)     0.00202       2.86634
   276    C    6  f(S3)  Ryd( 5f)     0.00024       4.55985
 
   277    C    7  S      Cor( 1S)     1.99913     -10.54484
   278    C    7  S      Val( 2S)     0.77817      -0.11047
   279    C    7  S      Ryd( 3S)     0.00393       1.98473
   280    C    7  S      Ryd( 4S)     0.00012       2.08902
   281    C    7  S      Ryd( 5S)     0.00007       2.27226
   282    C    7  px     Val( 2p)     0.73177      -0.04037
   283    C    7  px     Ryd( 4p)     0.00969       1.66424
   284    C    7  px     Ryd( 3p)     0.00011       1.19651
   285    C    7  px     Ryd( 5p)     0.00004       1.86824
   286    C    7  py     Val( 2p)     0.91337      -0.04788
   287    C    7  py     Ryd( 4p)     0.00828       1.63115
   288    C    7  py     Ryd( 3p)     0.00027       1.14030
   289    C    7  py     Ryd( 5p)     0.00002       1.71734
   290    C    7  pz     Val( 2p)     0.75949      -0.13319
   291    C    7  pz     Ryd( 4p)     0.00062       1.15760
   292    C    7  pz     Ryd( 3p)     0.00012       0.62476
   293    C    7  pz     Ryd( 5p)     0.00004       1.20459
   294    C    7  dxy    Ryd( 4d)     0.00071       3.32222
   295    C    7  dxy    Ryd( 3d)     0.00035       2.59430
   296    C    7  dxy    Ryd( 5d)     0.00009       3.95170
   297    C    7  dxz    Ryd( 4d)     0.00155       2.41979
   298    C    7  dxz    Ryd( 3d)     0.00007       1.86108
   299    C    7  dxz    Ryd( 5d)     0.00007       2.69702
   300    C    7  dyz    Ryd( 4d)     0.00097       2.45768
   301    C    7  dyz    Ryd( 3d)     0.00009       1.78170
   302    C    7  dyz    Ryd( 5d)     0.00005       2.66182
   303    C    7  dx2y2  Ryd( 4d)     0.00188       3.30159
   304    C    7  dx2y2  Ryd( 3d)     0.00029       2.30410
   305    C    7  dx2y2  Ryd( 5d)     0.00005       3.81863
   306    C    7  dz2    Ryd( 4d)     0.00038       3.22313
   307    C    7  dz2    Ryd( 3d)     0.00066       2.64249
   308    C    7  dz2    Ryd( 5d)     0.00010       3.78122
   309    C    7  f(0)   Ryd( 4f)     0.00007       1.50137
   310    C    7  f(0)   Ryd( 5f)     0.00012       3.73474
   311    C    7  f(C1)  Ryd( 4f)     0.00035       1.68724
   312    C    7  f(C1)  Ryd( 5f)     0.00008       3.76556
   313    C    7  f(S1)  Ryd( 4f)     0.00032       1.70921
   314    C    7  f(S1)  Ryd( 5f)     0.00016       3.88620
   315    C    7  f(C2)  Ryd( 4f)     0.00052       1.50372
   316    C    7  f(C2)  Ryd( 5f)     0.00001       3.67832
   317    C    7  f(S2)  Ryd( 4f)     0.00082       1.46542
   318    C    7  f(S2)  Ryd( 5f)     0.00002       3.74841
   319    C    7  f(C3)  Ryd( 4f)     0.00143       2.74399
   320    C    7  f(C3)  Ryd( 5f)     0.00009       4.79932
   321    C    7  f(S3)  Ryd( 4f)     0.00127       2.39566
   322    C    7  f(S3)  Ryd( 5f)     0.00006       4.83318
 
   323    O    8  S      Cor( 1S)     1.99979     -19.32817
   324    O    8  S      Val( 2S)     1.70794      -1.00405
   325    O    8  S      Ryd( 4S)     0.00052       2.65683
   326    O    8  S      Ryd( 3S)     0.00018       1.57797
   327    O    8  S      Ryd( 5S)     0.00003      10.34391
   328    O    8  px     Val( 2p)     1.75996      -0.34445
   329    O    8  px     Ryd( 4p)     0.00177       1.50102
   330    O    8  px     Ryd( 3p)     0.00007       1.02684
   331    O    8  px     Ryd( 5p)     0.00005       4.72721
   332    O    8  py     Val( 2p)     1.65804      -0.33612
   333    O    8  py     Ryd( 4p)     0.00084       1.74670
   334    O    8  py     Ryd( 3p)     0.00014       1.16983
   335    O    8  py     Ryd( 5p)     0.00006       4.70612
   336    O    8  pz     Val( 2p)     1.45251      -0.29167
   337    O    8  pz     Ryd( 4p)     0.00068       1.15446
   338    O    8  pz     Ryd( 3p)     0.00001       0.75393
   339    O    8  pz     Ryd( 5p)     0.00001       3.91223
   340    O    8  dxy    Ryd( 3d)     0.00777       2.14331
   341    O    8  dxy    Ryd( 4d)     0.00013       3.90289
   342    O    8  dxy    Ryd( 5d)     0.00001       6.38944
   343    O    8  dxz    Ryd( 3d)     0.00273       1.57874
   344    O    8  dxz    Ryd( 4d)     0.00004       1.94216
   345    O    8  dxz    Ryd( 5d)     0.00002       6.17151
   346    O    8  dyz    Ryd( 3d)     0.00449       1.56243
   347    O    8  dyz    Ryd( 4d)     0.00003       1.99561
   348    O    8  dyz    Ryd( 5d)     0.00002       6.19729
   349    O    8  dx2y2  Ryd( 3d)     0.00577       1.93319
   350    O    8  dx2y2  Ryd( 4d)     0.00012       2.63445
   351    O    8  dx2y2  Ryd( 5d)     0.00005       6.17972
   352    O    8  dz2    Ryd( 3d)     0.00290       1.73146
   353    O    8  dz2    Ryd( 4d)     0.00009       2.92684
   354    O    8  dz2    Ryd( 5d)     0.00001       6.33015
   355    O    8  f(0)   Ryd( 4f)     0.00012       3.27147
   356    O    8  f(0)   Ryd( 5f)     0.00000       5.46160
   357    O    8  f(C1)  Ryd( 4f)     0.00008       3.59626
   358    O    8  f(C1)  Ryd( 5f)     0.00001       5.72255
   359    O    8  f(S1)  Ryd( 4f)     0.00013       3.75803
   360    O    8  f(S1)  Ryd( 5f)     0.00002       5.72131
   361    O    8  f(C2)  Ryd( 4f)     0.00004       3.25400
   362    O    8  f(C2)  Ryd( 5f)     0.00001       5.86288
   363    O    8  f(S2)  Ryd( 4f)     0.00030       3.32950
   364    O    8  f(S2)  Ryd( 5f)     0.00001       5.54665
   365    O    8  f(C3)  Ryd( 4f)     0.00036       4.29230
   366    O    8  f(C3)  Ryd( 5f)     0.00001       6.08592
   367    O    8  f(S3)  Ryd( 4f)     0.00033       3.78668
   368    O    8  f(S3)  Ryd( 5f)     0.00003       5.93634
 
   369    O    9  S      Cor( 1S)     1.99977     -19.45311
   370    O    9  S      Val( 2S)     1.67199      -1.03023
   371    O    9  S      Ryd( 4S)     0.00043       1.86350
   372    O    9  S      Ryd( 3S)     0.00014       1.78032
   373    O    9  S      Ryd( 5S)     0.00001      11.44908
   374    O    9  px     Val( 2p)     1.60153      -0.38616
   375    O    9  px     Ryd( 4p)     0.00112       1.15964
   376    O    9  px     Ryd( 3p)     0.00011       0.56683
   377    O    9  px     Ryd( 5p)     0.00006       5.26231
   378    O    9  py     Val( 2p)     1.56026      -0.37354
   379    O    9  py     Ryd( 4p)     0.00054       1.24529
   380    O    9  py     Ryd( 3p)     0.00015       0.84185
   381    O    9  py     Ryd( 5p)     0.00008       5.35137
   382    O    9  pz     Val( 2p)     1.83620      -0.40865
   383    O    9  pz     Ryd( 4p)     0.00112       0.91676
   384    O    9  pz     Ryd( 3p)     0.00009       0.50783
   385    O    9  pz     Ryd( 5p)     0.00001       4.25183
   386    O    9  dxy    Ryd( 3d)     0.00349       1.85538
   387    O    9  dxy    Ryd( 4d)     0.00014       2.50854
   388    O    9  dxy    Ryd( 5d)     0.00003       6.88666
   389    O    9  dxz    Ryd( 3d)     0.00403       1.45621
   390    O    9  dxz    Ryd( 4d)     0.00002       1.70911
   391    O    9  dxz    Ryd( 5d)     0.00004       6.70167
   392    O    9  dyz    Ryd( 3d)     0.00107       1.22638
   393    O    9  dyz    Ryd( 4d)     0.00008       1.96052
   394    O    9  dyz    Ryd( 5d)     0.00001       6.65983
   395    O    9  dx2y2  Ryd( 3d)     0.00633       2.08275
   396    O    9  dx2y2  Ryd( 4d)     0.00007       2.46237
   397    O    9  dx2y2  Ryd( 5d)     0.00006       7.09641
   398    O    9  dz2    Ryd( 3d)     0.00277       1.58268
   399    O    9  dz2    Ryd( 4d)     0.00017       2.17203
   400    O    9  dz2    Ryd( 5d)     0.00001       6.96936
   401    O    9  f(0)   Ryd( 4f)     0.00048       2.92887
   402    O    9  f(0)   Ryd( 5f)     0.00001       5.96608
   403    O    9  f(C1)  Ryd( 4f)     0.00016       3.85611
   404    O    9  f(C1)  Ryd( 5f)     0.00001       6.22398
   405    O    9  f(S1)  Ryd( 4f)     0.00019       3.44309
   406    O    9  f(S1)  Ryd( 5f)     0.00001       6.28666
   407    O    9  f(C2)  Ryd( 4f)     0.00001       3.07644
   408    O    9  f(C2)  Ryd( 5f)     0.00001       6.15941
   409    O    9  f(S2)  Ryd( 4f)     0.00007       2.96578
   410    O    9  f(S2)  Ryd( 5f)     0.00001       6.14982
   411    O    9  f(C3)  Ryd( 4f)     0.00004       3.99902
   412    O    9  f(C3)  Ryd( 5f)     0.00003       6.47973
   413    O    9  f(S3)  Ryd( 4f)     0.00015       4.72758
   414    O    9  f(S3)  Ryd( 5f)     0.00005       6.62548
 
   415    F   10  S      Cor( 1S)     1.99992     -25.00214
   416    F   10  S      Val( 2S)     1.84280      -1.43933
   417    F   10  S      Ryd( 3S)     0.00014       1.37748
   418    F   10  S      Ryd( 4S)     0.00005       3.23916
   419    F   10  S      Ryd( 5S)     0.00001      13.02591
   420    F   10  px     Val( 2p)     1.90836      -0.53602
   421    F   10  px     Ryd( 4p)     0.00058       1.01321
   422    F   10  px     Ryd( 3p)     0.00013       0.88661
   423    F   10  px     Ryd( 5p)     0.00002       5.14934
   424    F   10  py     Val( 2p)     1.86299      -0.52957
   425    F   10  py     Ryd( 4p)     0.00045       1.06732
   426    F   10  py     Ryd( 3p)     0.00017       0.90174
   427    F   10  py     Ryd( 5p)     0.00004       5.28799
   428    F   10  pz     Val( 2p)     1.71149      -0.51313
   429    F   10  pz     Ryd( 4p)     0.00062       0.96866
   430    F   10  pz     Ryd( 3p)     0.00016       0.91734
   431    F   10  pz     Ryd( 5p)     0.00008       5.60120
   432    F   10  dxy    Ryd( 4d)     0.00047       2.82646
   433    F   10  dxy    Ryd( 3d)     0.00007       2.48341
   434    F   10  dxy    Ryd( 5d)     0.00001       8.68391
   435    F   10  dxz    Ryd( 4d)     0.00101       3.18427
   436    F   10  dxz    Ryd( 3d)     0.00006       2.97771
   437    F   10  dxz    Ryd( 5d)     0.00001       8.63752
   438    F   10  dyz    Ryd( 4d)     0.00132       3.41599
   439    F   10  dyz    Ryd( 3d)     0.00010       3.34522
   440    F   10  dyz    Ryd( 5d)     0.00001       8.66244
   441    F   10  dx2y2  Ryd( 4d)     0.00042       2.76836
   442    F   10  dx2y2  Ryd( 3d)     0.00006       2.48883
   443    F   10  dx2y2  Ryd( 5d)     0.00000       8.69031
   444    F   10  dz2    Ryd( 4d)     0.00126       3.31705
   445    F   10  dz2    Ryd( 3d)     0.00006       3.02326
   446    F   10  dz2    Ryd( 5d)     0.00001       8.67377
   447    F   10  f(0)   Ryd( 4f)     0.00012       3.48213
   448    F   10  f(0)   Ryd( 5f)     0.00003       8.45379
   449    F   10  f(C1)  Ryd( 4f)     0.00011       3.43930
   450    F   10  f(C1)  Ryd( 5f)     0.00002       8.38775
   451    F   10  f(S1)  Ryd( 4f)     0.00008       3.51422
   452    F   10  f(S1)  Ryd( 5f)     0.00003       8.43429
   453    F   10  f(C2)  Ryd( 4f)     0.00011       3.39174
   454    F   10  f(C2)  Ryd( 5f)     0.00002       8.34354
   455    F   10  f(S2)  Ryd( 4f)     0.00010       3.43440
   456    F   10  f(S2)  Ryd( 5f)     0.00002       8.33384
   457    F   10  f(C3)  Ryd( 4f)     0.00002       3.30965
   458    F   10  f(C3)  Ryd( 5f)     0.00001       8.27912
   459    F   10  f(S3)  Ryd( 4f)     0.00002       3.30703
   460    F   10  f(S3)  Ryd( 5f)     0.00001       8.27814
 
   461    C   11  S      Cor( 1S)     1.99936     -10.71182
   462    C   11  S      Val( 2S)     0.78770      -0.23838
   463    C   11  S      Ryd( 3S)     0.00456       1.96511
   464    C   11  S      Ryd( 4S)     0.00042       2.04844
   465    C   11  S      Ryd( 5S)     0.00007       3.23968
   466    C   11  px     Val( 2p)     0.89453      -0.14534
   467    C   11  px     Ryd( 4p)     0.00663       1.63360
   468    C   11  px     Ryd( 3p)     0.00028       1.27567
   469    C   11  px     Ryd( 5p)     0.00007       1.89939
   470    C   11  py     Val( 2p)     0.60456      -0.11114
   471    C   11  py     Ryd( 4p)     0.01008       1.61314
   472    C   11  py     Ryd( 3p)     0.00018       1.28184
   473    C   11  py     Ryd( 5p)     0.00006       1.92517
   474    C   11  pz     Val( 2p)     0.61627      -0.10801
   475    C   11  pz     Ryd( 5p)     0.00999       1.50230
   476    C   11  pz     Ryd( 3p)     0.00024       0.98117
   477    C   11  pz     Ryd( 4p)     0.00007       1.47488
   478    C   11  dxy    Ryd( 4d)     0.00143       2.89823
   479    C   11  dxy    Ryd( 3d)     0.00050       2.13687
   480    C   11  dxy    Ryd( 5d)     0.00009       3.14589
   481    C   11  dxz    Ryd( 4d)     0.00233       2.43043
   482    C   11  dxz    Ryd( 3d)     0.00027       1.95514
   483    C   11  dxz    Ryd( 5d)     0.00005       2.52417
   484    C   11  dyz    Ryd( 5d)     0.00393       2.72456
   485    C   11  dyz    Ryd( 3d)     0.00020       2.22662
   486    C   11  dyz    Ryd( 4d)     0.00004       2.56886
   487    C   11  dx2y2  Ryd( 5d)     0.00307       3.26582
   488    C   11  dx2y2  Ryd( 3d)     0.00013       2.21073
   489    C   11  dx2y2  Ryd( 4d)     0.00009       2.79502
   490    C   11  dz2    Ryd( 5d)     0.00384       2.79640
   491    C   11  dz2    Ryd( 3d)     0.00029       2.25803
   492    C   11  dz2    Ryd( 4d)     0.00004       2.70499
   493    C   11  f(0)   Ryd( 5f)     0.00060       3.60483
   494    C   11  f(0)   Ryd( 4f)     0.00001       2.86643
   495    C   11  f(C1)  Ryd( 4f)     0.00019       4.26655
   496    C   11  f(C1)  Ryd( 5f)     0.00004       4.32027
   497    C   11  f(S1)  Ryd( 5f)     0.00018       4.14630
   498    C   11  f(S1)  Ryd( 4f)     0.00010       3.90414
   499    C   11  f(C2)  Ryd( 5f)     0.00047       3.71548
   500    C   11  f(C2)  Ryd( 4f)     0.00004       2.75004
   501    C   11  f(S2)  Ryd( 5f)     0.00027       3.95070
   502    C   11  f(S2)  Ryd( 4f)     0.00001       3.35078
   503    C   11  f(C3)  Ryd( 5f)     0.00011       4.43431
   504    C   11  f(C3)  Ryd( 4f)     0.00010       3.70054
   505    C   11  f(S3)  Ryd( 5f)     0.00046       3.86528
   506    C   11  f(S3)  Ryd( 4f)     0.00007       3.16334
 
   507    F   12  S      Cor( 1S)     1.99992     -25.01310
   508    F   12  S      Val( 2S)     1.84144      -1.44803
   509    F   12  S      Ryd( 3S)     0.00011       1.36432
   510    F   12  S      Ryd( 4S)     0.00005       3.00791
   511    F   12  S      Ryd( 5S)     0.00001      12.61281
   512    F   12  px     Val( 2p)     1.87045      -0.54077
   513    F   12  px     Ryd( 4p)     0.00052       1.05722
   514    F   12  px     Ryd( 3p)     0.00019       0.86181
   515    F   12  px     Ryd( 5p)     0.00003       5.23810
   516    F   12  py     Val( 2p)     1.67377      -0.51894
   517    F   12  py     Ryd( 4p)     0.00059       1.08580
   518    F   12  py     Ryd( 3p)     0.00018       0.84729
   519    F   12  py     Ryd( 5p)     0.00010       5.74643
   520    F   12  pz     Val( 2p)     1.94571      -0.55044
   521    F   12  pz     Ryd( 4p)     0.00033       1.01669
   522    F   12  pz     Ryd( 3p)     0.00003       0.67360
   523    F   12  pz     Ryd( 5p)     0.00000       4.94179
   524    F   12  dxy    Ryd( 4d)     0.00140       3.59081
   525    F   12  dxy    Ryd( 3d)     0.00007       3.53392
   526    F   12  dxy    Ryd( 5d)     0.00001       8.71949
   527    F   12  dxz    Ryd( 4d)     0.00032       2.57682
   528    F   12  dxz    Ryd( 3d)     0.00007       2.10943
   529    F   12  dxz    Ryd( 5d)     0.00000       8.55363
   530    F   12  dyz    Ryd( 4d)     0.00072       3.01994
   531    F   12  dyz    Ryd( 3d)     0.00003       2.50848
   532    F   12  dyz    Ryd( 5d)     0.00001       8.63069
   533    F   12  dx2y2  Ryd( 4d)     0.00127       3.38444
   534    F   12  dx2y2  Ryd( 3d)     0.00008       3.21015
   535    F   12  dx2y2  Ryd( 5d)     0.00001       8.72037
   536    F   12  dz2    Ryd( 4d)     0.00062       2.91232
   537    F   12  dz2    Ryd( 3d)     0.00011       2.89155
   538    F   12  dz2    Ryd( 5d)     0.00000       8.59647
   539    F   12  f(0)   Ryd( 4f)     0.00010       3.24290
   540    F   12  f(0)   Ryd( 5f)     0.00001       8.23010
   541    F   12  f(C1)  Ryd( 4f)     0.00002       3.24345
   542    F   12  f(C1)  Ryd( 5f)     0.00001       8.21526
   543    F   12  f(S1)  Ryd( 4f)     0.00005       3.40892
   544    F   12  f(S1)  Ryd( 5f)     0.00002       8.39420
   545    F   12  f(C2)  Ryd( 4f)     0.00006       3.34134
   546    F   12  f(C2)  Ryd( 5f)     0.00001       8.39593
   547    F   12  f(S2)  Ryd( 4f)     0.00010       3.31171
   548    F   12  f(S2)  Ryd( 5f)     0.00002       8.31752
   549    F   12  f(C3)  Ryd( 4f)     0.00010       3.57305
   550    F   12  f(C3)  Ryd( 5f)     0.00004       8.49705
   551    F   12  f(S3)  Ryd( 4f)     0.00012       3.52165
   552    F   12  f(S3)  Ryd( 5f)     0.00003       8.49134
 
   553    F   13  S      Cor( 1S)     1.99992     -25.00215
   554    F   13  S      Val( 2S)     1.84280      -1.43933
   555    F   13  S      Ryd( 3S)     0.00014       1.37749
   556    F   13  S      Ryd( 4S)     0.00005       3.23927
   557    F   13  S      Ryd( 5S)     0.00001      13.02555
   558    F   13  px     Val( 2p)     1.90834      -0.53602
   559    F   13  px     Ryd( 4p)     0.00058       1.01321
   560    F   13  px     Ryd( 3p)     0.00013       0.88659
   561    F   13  px     Ryd( 5p)     0.00002       5.14932
   562    F   13  py     Val( 2p)     1.86298      -0.52958
   563    F   13  py     Ryd( 4p)     0.00045       1.06732
   564    F   13  py     Ryd( 3p)     0.00017       0.90172
   565    F   13  py     Ryd( 5p)     0.00004       5.28793
   566    F   13  pz     Val( 2p)     1.71150      -0.51314
   567    F   13  pz     Ryd( 4p)     0.00062       0.96867
   568    F   13  pz     Ryd( 3p)     0.00016       0.91728
   569    F   13  pz     Ryd( 5p)     0.00008       5.60114
   570    F   13  dxy    Ryd( 4d)     0.00047       2.82647
   571    F   13  dxy    Ryd( 3d)     0.00007       2.48336
   572    F   13  dxy    Ryd( 5d)     0.00001       8.68391
   573    F   13  dxz    Ryd( 4d)     0.00101       3.18429
   574    F   13  dxz    Ryd( 3d)     0.00006       2.97773
   575    F   13  dxz    Ryd( 5d)     0.00001       8.63752
   576    F   13  dyz    Ryd( 4d)     0.00132       3.41589
   577    F   13  dyz    Ryd( 3d)     0.00010       3.34506
   578    F   13  dyz    Ryd( 5d)     0.00001       8.66244
   579    F   13  dx2y2  Ryd( 4d)     0.00042       2.76836
   580    F   13  dx2y2  Ryd( 3d)     0.00006       2.48871
   581    F   13  dx2y2  Ryd( 5d)     0.00000       8.69030
   582    F   13  dz2    Ryd( 4d)     0.00126       3.31695
   583    F   13  dz2    Ryd( 3d)     0.00006       3.02313
   584    F   13  dz2    Ryd( 5d)     0.00001       8.67377
   585    F   13  f(0)   Ryd( 4f)     0.00012       3.48213
   586    F   13  f(0)   Ryd( 5f)     0.00003       8.45377
   587    F   13  f(C1)  Ryd( 4f)     0.00011       3.43931
   588    F   13  f(C1)  Ryd( 5f)     0.00002       8.38772
   589    F   13  f(S1)  Ryd( 4f)     0.00008       3.51420
   590    F   13  f(S1)  Ryd( 5f)     0.00003       8.43425
   591    F   13  f(C2)  Ryd( 4f)     0.00011       3.39174
   592    F   13  f(C2)  Ryd( 5f)     0.00002       8.34350
   593    F   13  f(S2)  Ryd( 4f)     0.00010       3.43442
   594    F   13  f(S2)  Ryd( 5f)     0.00002       8.33382
   595    F   13  f(C3)  Ryd( 4f)     0.00002       3.30965
   596    F   13  f(C3)  Ryd( 5f)     0.00001       8.27908
   597    F   13  f(S3)  Ryd( 4f)     0.00002       3.30702
   598    F   13  f(S3)  Ryd( 5f)     0.00001       8.27809
 
[...]
 95,0.3766042,-1.0672888,0.0002494,-0.0005368,0.0000866,-0.364989,-0.93
 04137,-0.4289782,-0.0007225,-0.4920749,-0.927155,-0.0006465,-0.0008121
 ,-0.0006506,-0.3232429,-0.5133778,-0.1623316,0.1404626,-0.1806703,-0.4
 928988,0.2738104,0.1461686,0.2727355,-0.6516336,1.9451914,0.1188262,0.
 000324,0.1787823,1.5441534,0.0001455,0.0003249,0.0001093,1.5725761,-0.
 8187381,0.2589435,-0.0003591,0.2119607,-0.5399506,0.000099,-0.0003658,
 0.0001325,-0.2757083,-0.5129525,-0.1618513,-0.1403409,-0.1801858,-0.49
 26468,-0.2740151,-0.146046,-0.2729143,-0.6523294,0.0482167,0.0158258,-
 0.0000608,0.0237005,0.115335,0.0000194,-0.0000628,0.0000058,0.1238216,
 -0.0198044,-0.0552203,-0.0001367,-0.0457313,0.0391462,-0.0000529,-0.00
 01324,-0.0000618,0.1316977,0.0692162,0.0006883,-0.0000499,-0.0079568,-
 0.0461984,-0.0000299,-0.0000529,-0.0000219,0.1291464,0.0606402,0.03827
 88,-0.0000564,0.0474856,0.0566,0.0000283,-0.0000517,0.000023,0.1295126
 ,0.2568434,0.0950257,-0.0000455,0.0738152,0.3699092,0.0000879,-0.00005
 11,0.0001163,0.3279336\Polar=113.2963517,1.918275,125.4227953,0.044502
 1,0.0121163,62.2661596\Quadrupole=-4.4171523,7.4357155,-3.0185632,4.93
 21958,-0.0006447,0.0065456\PG=C01 [X(C8H5F3O2)]\NImag=1\\0.71544444,-0
 .03882737,0.73347905,0.00047990,0.00004764,0.14672037,-0.13550462,-0.0
 4973108,-0.00006555,0.75295104,0.02867670,-0.35118628,-0.00001463,0.03
 098123,0.70041085,-0.00005462,-0.00008178,-0.06695344,0.00052752,0.000
 10259,0.14089325,0.04652213,0.08691412,0.00004499,-0.29743136,0.059780
 03,-0.00019099,0.68560063,0.03086893,-0.03010307,0.00002147,0.13734924
 ,-0.19568718,0.00009993,-0.00646381,0.76254787,0.00003681,0.00006837,0
 .00751088,-0.00018051,0.00003462,-0.06532538,0.00046032,0.00007480,0.1
 4273927,-0.02419651,-0.03392124,-0.00001946,-0.06052800,0.03317271,-0.
 00005324,-0.29461704,-0.12816547,-0.00020942,0.74904770,-0.03794493,-0
 .06016735,-0.00003942,-0.02320057,0.07805942,-0.00000998,-0.04786313,-
 0.18132113,-0.00005579,-0.02922946,0.69254351,-0.00001963,-0.00003562,
 -0.00656435,-0.00006122,0.00003740,0.00769930,-0.00019799,-0.00012336,
 -0.06671330,0.00050566,0.00005013,0.14053546,-0.06222622,-0.02685314,-
 0.00006181,-0.01856730,0.03529341,-0.00000605,0.03719155,-0.03012310,0
 .00002266,-0.13073341,-0.04775416,-0.00006107,0.65019746,0.03182602,0.
 07174001,0.00003529,0.03273656,-0.06365243,0.00002019,-0.08948483,-0.0
 2378202,-0.00007934,0.03311103,-0.32780132,-0.00000888,-0.01095700,0.6
 7144807,-0.00005416,-0.00001425,0.00655218,-0.00000633,0.00002205,-0.0
 0590016,0.00001524,-0.00002894,0.00506240,-0.00005042,-0.00007608,-0.0
 6494111,0.00038524,0.00005445,0.18349426,-0.28027783,-0.04526487,-0.00
 018740,0.03599819,-0.08424727,0.00001253,-0.07883331,0.00023007,-0.000
 06111,0.04168644,0.08341675,0.00003761,-0.24995701,0.04481024,-0.00014
 936,0.68659527,-0.11804917,-0.16904055,-0.00011246,-0.02761365,-0.0234
 5808,-0.00002727,0.00428625,-0.00076244,0.00000413,0.02258467,-0.03577
 323,0.00001318,0.10687075,-0.16990983,0.00007517,-0.00534513,0.6285175
 5,-0.00019756,-0.00005003,-0.06844919,0.00002184,-0.00007641,0.0071981
 3,-0.00006132,0.00000099,-0.00639159,0.00003032,0.00006469,0.00929918,
 -0.00014246,0.00002334,-0.06367834,0.00046030,0.00007402,0.15019771,0.
 01307433,-0.02585262,0.00000506,-0.00625669,-0.00643558,-0.00001307,-0
 .00454395,0.00079321,-0.00000253,-0.00464645,0.00492945,-0.00001028,0.
 00479253,0.02309797,0.00000820,-0.09665532,-0.00184041,-0.00001210,0.9
 3911313,-0.01718653,-0.02960657,-0.00002153,-0.00223481,0.00172994,-0.
 00000368,-0.00320502,0.00149729,-0.00000219,0.00406602,0.00844739,0.00
 000277,0.01060896,-0.01332886,0.00000802,0.00490400,-0.18621351,-0.000
 00702,-0.14426016,0.70351439,0.00000434,-0.00002625,0.00373898,-0.0000
 1262,-0.00000612,0.00844701,-0.00000322,0.00000099,-0.00136326,-0.0000
 1066,0.00000476,0.00811579,0.00000691,0.00001886,-0.00114920,-0.000008
 21,-0.00002807,-0.08318626,0.00066191,0.00000485,0.21500366,-0.0079696
 1,-0.00644795,-0.00000909,0.00187189,0.00110100,0.00000233,-0.00021493
 ,-0.00048296,-0.00000030,0.00046837,0.00140846,0.00000205,0.00482787,0
 .00052891,0.00000206,-0.01351375,0.03051806,-0.00002455,-0.60514592,0.
 26547802,-0.00042043,0.73544379,0.00269251,-0.00500527,0.00000215,0.00
 133930,0.00161036,0.00000111,0.00252215,-0.00097274,0.00000192,0.00084
 463,-0.00410572,0.00000039,-0.00660868,-0.00403832,-0.00000678,0.04647
 150,-0.03269070,0.00003094,0.25969027,-0.25874784,0.00019460,-0.297258
 17,0.26721694,-0.00000687,-0.00000654,0.00067795,0.00000239,0.00000102
 ,-0.00072948,-0.00000006,-0.00000058,0.00009527,0.00000209,0.00000086,
 -0.00153205,0.00000073,-0.00000141,0.00261638,-0.00002157,0.00002050,0
 .02051314,-0.00041903,0.00019741,-0.08097634,0.00058974,-0.00021992,0.
 03392471,0.00073925,0.00077888,-0.00000026,0.00129035,0.00004829,0.000
 00157,0.00079426,-0.00037007,0.00000056,0.00004645,-0.00181141,0.00000
 050,-0.00156719,0.00045689,-0.00000130,0.00113657,-0.00903376,-0.00001
 341,-0.25102077,-0.07220599,-0.00021702,-0.11696333,-0.01714649,-0.000
 15704,0.45229211,0.00510514,-0.00642541,0.00000304,-0.00167364,-0.0013
 2501,-0.00000079,-0.00013767,-0.00030550,-0.00000020,-0.00001585,-0.00
 075136,0.00000022,-0.00186118,0.00147970,-0.00000130,-0.03951773,-0.02
 877825,-0.00005299,-0.10374382,-0.19056390,-0.00014721,-0.00460588,0.0
 3867413,-0.00000253,-0.00441529,0.66657336,0.00000142,-0.00000157,0.00
 105226,0.00000098,-0.00000015,-0.00041523,0.00000076,-0.00000046,0.000
 09099,0.00000066,-0.00000202,-0.00068472,-0.00000190,0.00000079,0.0001
 0869,-0.00002052,-0.00001666,0.01081085,-0.00022989,-0.00011562,-0.065
 10289,-0.00015105,-0.00001474,0.03147000,0.00042897,0.00017990,0.03995
 900,-0.00001293,-0.00071346,-0.00099755,-0.00041573,-0.00024325,0.0001
 8020,-0.00016551,-0.00115094,-0.00175047,-0.00475706,0.00157168,0.0011
 4178,-0.00307907,-0.02663849,0.02898080,0.00153926,0.00056364,-0.00026
 706,0.00008281,-0.00251445,0.00055618,-0.00067265,0.00121310,-0.000210
 20,-0.00354568,0.00693516,0.00313486,0.08719453,-0.00150680,-0.0010524
 2,-0.00127072,-0.00096906,0.00073417,0.00016045,0.00024834,0.00018629,
 -0.00146804,-0.00229151,0.00035235,0.00018849,-0.01079076,-0.00990117,
 0.02400287,0.00087008,-0.00054071,0.00029240,-0.00572678,-0.00690422,0
 .00103992,0.00222138,0.00186215,0.00001162,0.00881815,-0.00091661,-0.0
 0459341,0.02053746,0.19520015,0.00095202,0.00044232,0.00054212,0.00040
 273,-0.00041896,-0.00008841,-0.00033264,0.00076886,0.00065968,0.003849
 89,0.00017497,-0.00041618,0.00476590,0.01570375,-0.00920284,-0.0008396
 8,0.00001365,0.00070888,0.00196070,0.00246129,-0.00145095,-0.00017904,
 -0.00096810,0.00021790,0.00117283,-0.00395425,0.00115659,-0.04500206,-
 0.15667029,0.30236220,0.00182597,0.00647170,-0.00000237,0.00249424,-0.
 00126876,0.00000273,-0.00048431,0.00353271,-0.00000565,0.00409693,-0.0
 1419750,-0.00000129,-0.18441407,-0.04241250,-0.00009990,-0.02240142,-0
 .00835604,-0.00001817,0.00055340,0.01141573,0.00000361,0.00130769,-0.0
 0497344,-0.00000014,-0.00479030,-0.00472927,-0.00000175,-0.09740578,-0
 .03780215,0.04696328,0.59251548,0.00896368,0.00157264,0.00000753,0.003
 69299,-0.00450908,0.00000261,-0.00119925,-0.00737761,-0.00000287,-0.03
 062446,-0.00888268,-0.00002744,-0.03184443,-0.10958685,-0.00003163,0.0
 0853224,0.01324999,0.00000973,0.01774209,0.01689279,0.00002117,-0.0064
 0653,-0.00432774,-0.00000733,-0.01009416,-0.00616685,-0.00001025,-0.03
 669528,-0.14538622,0.09499811,0.02892012,0.55479594,-0.00000291,0.0000
 0453,0.00629684,0.00000333,-0.00000128,-0.00100851,-0.00000629,0.00000
 062,0.00740312,-0.00000409,-0.00001310,0.00385880,-0.00009552,-0.00003
 912,-0.06886112,-0.00001498,-0.00000477,-0.00239508,0.00000505,0.00001
 431,-0.00048850,-0.00000203,-0.00000487,0.00021161,-0.00000185,-0.0000
 0477,-0.00546163,0.04365413,0.09814787,-0.19851120,0.00005414,0.000020
 38,0.53322688,-0.00234385,0.00153241,-0.00000175,-0.00068629,0.0004272
 6,-0.00000044,0.00046883,0.00052597,0.00000019,-0.00447151,-0.00007790
 ,-0.00000393,-0.04056679,0.03525907,-0.00002988,-0.00340876,-0.0078130
 4,-0.00000439,0.00113458,-0.00281157,0.00000057,-0.00099559,0.00149983
 ,-0.00000058,0.00035910,0.00092256,0.00000004,0.00825842,0.02146509,-0
 .01793252,-0.19900677,0.08655983,-0.00007577,0.24015360,-0.00046043,-0
 .00040397,-0.00000038,-0.00061903,0.00011143,-0.00000058,-0.00096301,0
 .00243582,-0.00000031,-0.00342667,-0.00731825,-0.00000307,0.00376969,-
 0.00003793,0.00000125,0.00016642,0.00202840,-0.00000009,-0.00394112,-0
 .00255179,-0.00000433,0.00159881,0.00046237,0.00000162,0.00235555,0.00
 107791,0.00000238,0.03348999,-0.05372012,0.03971838,0.09514433,-0.1520
 6159,0.00005468,-0.15472891,0.26221055,-0.00000158,0.00000083,-0.00047
 241,-0.00000072,0.00000062,-0.00002455,0.00000030,0.00000075,0.0002447
 1,-0.00000464,-0.00000137,0.00063401,-0.00003703,0.00002530,0.00816456
 ,-0.00000360,-0.00000568,0.00169744,0.00000013,-0.00000286,-0.00020003
 ,-0.00000023,0.00000123,0.00002154,0.00000021,0.00000092,0.00080537,-0
 .02769016,0.04698405,-0.01084815,-0.00007433,0.00004889,-0.07300730,0.
 00008274,-0.00007797,0.08433238,-0.00001373,-0.00071363,0.00099684,-0.
 00041510,-0.00024337,-0.00018083,-0.00016867,-0.00114982,0.00174902,-0
 .00474848,0.00157192,-0.00114808,-0.00302704,-0.02659956,-0.02898272,0
 .00153761,0.00056386,0.00026875,0.00008607,-0.00251053,-0.00055545,-0.
 00067343,0.00121148,0.00020927,-0.00353864,0.00693084,-0.00313844,0.01
 439288,0.00463865,0.00342665,-0.09726731,-0.03653161,-0.04351714,0.008
 18921,0.03353765,0.02773457,0.08705665,-0.00150874,-0.00105257,0.00126
 741,-0.00096869,0.00073423,-0.00016182,0.00024590,0.00018641,0.0014680
 9,-0.00228866,0.00035225,-0.00019129,-0.01075230,-0.00988114,-0.024018
 72,0.00086997,-0.00054126,-0.00029177,-0.00572358,-0.00690363,-0.00105
 383,0.00222198,0.00186191,-0.00000647,0.00881133,-0.00091904,0.0046077
 5,0.00462819,0.01974015,0.00781004,-0.03763101,-0.14529617,-0.09817901
 ,0.02152862,-0.05368050,-0.04697181,0.02027693,0.19505336,-0.00095332,
 -0.00044372,0.00054239,-0.00040345,0.00041858,-0.00008935,0.00033086,-
 0.00077070,0.00066352,-0.00385692,-0.00017195,-0.00042423,-0.00476219,
 -0.01574407,-0.00927176,0.00084054,-0.00001346,0.00071036,-0.00196134,
 -0.00246876,-0.00145693,0.00017951,0.00097068,0.00021891,-0.00117593,0
 .00396480,0.00115565,-0.00327561,-0.00775492,-0.08379759,-0.04682523,-
 0.09502760,-0.19873630,0.01797140,-0.03968734,-0.01081858,0.04468355,0
 .15664979,0.30264013,-0.26455838,0.13029388,-0.00017171,0.00734347,-0.
 00344227,0.00000118,0.00117684,-0.00135348,-0.00000557,0.00029753,-0.0
 0079181,0.00000114,-0.00334246,-0.00363805,-0.00000856,-0.01983295,0.0
 1484954,-0.00001904,-0.00380383,0.00199710,0.00000036,0.00281608,0.001
 53976,0.00000300,0.00104405,0.00013200,0.00000108,-0.00006650,-0.00023
 720,0.00014910,0.00023426,0.00139117,-0.00000048,-0.00068673,0.0000923
 9,-0.00000026,-0.00006629,-0.00023725,-0.00014919,0.27874988,0.1337102
 4,-0.14170662,0.00010033,0.02551050,-0.01029101,0.00001973,-0.00077776
 ,-0.00533234,-0.00000240,-0.00116353,-0.00105246,-0.00000100,-0.003457
 20,-0.00119509,-0.00000393,-0.01164526,0.01215633,-0.00000895,-0.00349
 018,0.00021876,-0.00000296,0.00002235,-0.00463597,-0.00000079,0.001874
 66,0.00075331,0.00000232,-0.00005688,-0.00027298,0.00013993,-0.0000755
 9,0.00132300,0.00000006,-0.00057838,0.00001710,-0.00000040,-0.00005668
 ,-0.00027294,-0.00014011,-0.14059291,0.14978860,-0.00017059,0.00009765
 ,-0.04252854,0.00000499,-0.00000488,0.00542129,-0.00000527,-0.00000286
 ,0.00747153,0.00000103,-0.00000085,-0.00116791,-0.00000861,-0.00000399
 ,0.00616737,-0.00002274,0.00001252,0.00488979,-0.00000037,0.00000338,-
 0.00427082,0.00000291,0.00000081,-0.00039295,0.00000078,-0.00000021,0.
 00014863,0.00000469,-0.00004323,-0.00007451,-0.00000059,0.00000117,0.0
 0099258,-0.00000058,0.00000016,-0.00026735,-0.00000466,0.00004287,-0.0
 0007474,0.00019415,-0.00010324,0.02868076,0.00362270,0.00169793,-0.000
 00012,-0.28447031,-0.11776743,-0.00022443,-0.01762583,-0.01475175,-0.0
 0002079,-0.00303989,0.00387371,-0.00000892,0.00021682,0.00095766,0.000
 00087,0.00175442,0.00044456,-0.00000511,0.00005044,0.00038530,0.000000
 04,0.00005392,-0.00017889,-0.00000008,-0.00001975,-0.00005108,0.000000
 09,-0.00000340,-0.00005222,0.00007181,-0.00011947,0.00020987,0.0000008
 9,-0.00002630,-0.00023497,-0.00000002,-0.00000293,-0.00005177,-0.00007
 161,0.00054978,-0.00034213,0.00000409,0.29889206,-0.02911170,-0.009696
 98,-0.00002671,-0.11759090,-0.12162335,-0.00011166,0.01599913,0.012411
 90,0.00001476,0.00355057,-0.00099418,0.00000180,0.00105321,-0.00111540
 ,0.00000085,0.00073918,-0.00532737,-0.00000095,-0.00180264,0.00058859,
 -0.00000129,0.00041358,-0.00022785,0.00000024,-0.00001367,-0.00087335,
 -0.00000028,0.00000849,0.00008391,-0.00004860,0.00005923,-0.00023626,0
 .00000016,-0.00008502,0.00019636,-0.00000003,0.00000848,0.00008394,0.0
 0004866,0.00040901,0.00111589,0.00000106,0.12642217,0.12453855,-0.0000
 0435,-0.00000065,0.00407674,-0.00022446,-0.00011162,-0.04087179,-0.000
 01664,-0.00001168,0.00442068,-0.00000897,0.00000225,0.00796232,0.00000
 095,0.00000087,-0.00064865,-0.00000463,-0.00000145,0.00768792,-0.00000
 031,0.00000049,0.00004586,0.00000002,-0.00000017,0.00010658,0.00000007
 ,-0.00000015,-0.00012312,0.00020480,0.00024048,-0.00012543,0.00000066,
 0.00000020,-0.00109669,0.00000003,-0.00000020,-0.00003011,-0.00020464,
 -0.00024044,-0.00012596,0.00000414,0.00000046,-0.00424693,0.00024960,0
 .00012140,0.02718966,-0.00453158,0.00304784,-0.00001029,0.00615406,0.0
 2756283,0.00000465,-0.06022083,-0.00476522,-0.00001671,0.00366462,-0.0
 2862981,-0.00000449,-0.00451615,-0.00277954,-0.00001046,-0.00161167,0.
 00016376,-0.00000042,-0.00034794,-0.00001181,0.00000080,0.00030265,0.0
 0011482,0.00000014,0.00018064,0.00009711,0.00000016,-0.00043039,-0.000
 20271,0.00031703,0.00115817,-0.00113653,0.00000077,-0.00011703,0.00021
 397,-0.00000008,-0.00042997,-0.00020246,-0.00031777,0.00028145,0.00119
 470,0.00000063,0.00094666,-0.00070762,0.00000424,0.05851926,0.00326968
 ,0.00013894,0.00000178,-0.00307219,-0.01098596,-0.00000475,-0.00517916
 ,-0.34611091,-0.00004426,0.00204444,-0.00990243,-0.00000018,-0.0026222
 6,0.00064356,-0.00000304,0.00012105,0.00090189,0.00000038,0.00010498,-
 0.00014103,0.00000028,-0.00010535,-0.00011279,-0.00000013,-0.00003786,
 -0.00005808,-0.00000009,-0.00025462,-0.00016820,0.00017849,0.00090697,
 -0.00020922,0.00000071,-0.00017840,0.00007219,-0.00000013,-0.00025435,
 -0.00016809,-0.00017895,-0.00031368,-0.00049508,-0.00000030,0.00017184
 ,0.00068745,0.00000078,0.00555611,0.36517809,-0.00001031,0.00000170,0.
 00797370,0.00000079,0.00002124,0.00497932,-0.00001686,-0.00004396,-0.0
 4123471,-0.00000030,-0.00002630,0.00437988,-0.00001049,-0.00000319,0.0
 0745443,-0.00000031,0.00000023,-0.00109717,0.00000083,0.00000035,-0.00
 135053,0.00000012,0.00000012,0.00015840,0.00000005,-0.00000002,0.00007
 339,-0.00008623,0.00002661,0.00000770,0.00000107,-0.00000097,-0.000000
 48,-0.00000012,0.00000018,0.00004722,0.00008535,-0.00002706,0.00000720
 ,0.00000042,0.00000096,-0.00024969,0.00000436,0.00000007,-0.00413385,0
 .00002742,0.00004893,0.02711111,-0.00004796,-0.00126827,0.00000075,-0.
 00337399,-0.00320977,-0.00000928,-0.01730654,0.01536320,-0.00001628,-0
 .26766754,0.13458426,-0.00017220,0.00478612,-0.00033247,0.00000034,0.0
 0138739,-0.00127425,-0.00000437,0.00045336,-0.00001446,-0.00000041,0.0
 0003155,-0.00020757,0.00000034,-0.00010930,-0.00007110,-0.00000009,-0.
 00001410,0.00039558,-0.00023934,0.00041514,-0.00067432,0.00000292,-0.0
 0607683,-0.00600897,-0.00000531,-0.00001329,0.00039679,0.00024026,-0.0
 0003622,0.00006381,0.00000056,-0.00078553,0.00075407,-0.00000054,0.000
 99696,-0.00016494,0.00000425,0.28734774,-0.00095577,-0.00076770,-0.000
 00073,-0.00339555,-0.00077964,-0.00000402,-0.01470399,0.01235679,-0.00
 001125,0.13162463,-0.14181376,0.00009622,0.02576986,-0.01144815,0.0000
 1955,-0.00151410,-0.00560993,-0.00000293,0.00139925,0.00107688,0.00000
 140,0.00037064,-0.00095637,0.00000015,-0.00034205,-0.00035831,-0.00000
 045,-0.00040824,0.00051228,-0.00038958,0.00425509,-0.00312714,0.000003
 24,-0.00316429,0.00094643,-0.00000220,-0.00040868,0.00051215,0.0003891
 6,0.00007811,0.00001998,0.00000017,-0.00077073,0.00044633,-0.00000063,
 0.00048720,0.00071403,0.00000110,-0.13834083,0.14824921,0.00000107,-0.
 00000063,-0.00114544,-0.00000922,-0.00000414,0.00723537,-0.00002110,0.
 00001391,0.00458656,-0.00017187,0.00009913,-0.03987484,0.00000440,-0.0
 0000329,0.00433971,-0.00000501,-0.00000251,0.00654062,-0.00000024,-0.0
 0000007,0.00095991,0.00000043,-0.00000022,-0.00043177,-0.00000011,-0.0
 0000011,-0.00004769,0.00074104,0.00083112,-0.00048497,0.00000331,-0.00
 000052,-0.00323886,-0.00000486,-0.00000452,-0.00012892,-0.00074054,-0.
 00083025,-0.00048620,0.00000060,0.00000017,-0.00071860,-0.00000071,0.0
 0000068,-0.00005208,0.00000441,0.00000047,-0.00415728,0.00019840,-0.00
 009923,0.02708492,0.00045441,-0.00114312,-0.00000018,-0.00045385,-0.00
 018576,0.00000024,-0.00014197,0.00011329,-0.00000021,0.00009784,0.0001
 4443,0.00000035,-0.00001565,0.00005809,0.00000033,-0.00514312,-0.00151
 963,-0.00001125,0.01308020,-0.05189980,-0.00000669,-0.00097460,0.00723
 391,0.00000786,-0.07632783,0.14069968,-0.00002538,-0.00089910,0.000384
 47,0.00049335,0.00128817,-0.00080541,-0.00000016,-0.00017732,0.0000143
 2,0.00000001,-0.00089755,0.00038474,-0.00049355,-0.00009999,-0.0001397
 6,-0.00000040,0.00000660,-0.00010558,0.00000002,0.00000107,0.00000773,
 -0.00000005,0.00001300,0.00001945,0.,0.07018967,0.00043852,-0.00071590
 ,-0.00000007,-0.00054066,0.00010760,-0.00000026,-0.00001829,0.00013255
 ,-0.00000005,0.00012813,0.00012894,0.00000026,0.00025832,0.00036717,0.
 00000048,-0.00359712,0.00179170,-0.00000535,-0.00494035,-0.03900468,-0
 .00001675,0.00942365,0.00413345,0.00001228,0.09232700,-0.47111674,-0.0
 0003744,-0.00027209,0.00019119,0.00003999,0.00074037,-0.00066697,0.000
 00034,-0.00028312,0.00021558,-0.00000015,-0.00027157,0.00019093,-0.000
 04008,-0.00017633,-0.00013850,-0.00000023,0.00003795,-0.00005819,0.000
 00006,-0.00000263,0.00001564,-0.00000001,0.00000924,0.00002691,0.,-0.0
 9326104,0.50439933,0.00000033,-0.00000199,0.00042898,-0.00000051,0.000
 00008,-0.00046737,-0.00000008,0.00000022,0.00007964,0.00000032,0.00000
 009,-0.00016606,0.00000036,0.00000045,-0.00030680,-0.00001185,-0.00000
 105,0.00494362,0.00000728,-0.00007114,0.00468449,0.00000755,0.00001085
 ,-0.00616980,-0.00003863,0.00001563,-0.01499613,0.00068086,-0.00012527
 ,-0.00065483,0.00000062,-0.00000119,0.00081584,-0.00000012,0.00000016,
 -0.00014984,-0.00068151,0.00012652,-0.00065652,-0.00000035,-0.00000018
 ,0.00022008,0.00000005,-0.00000016,-0.00003514,-0.00000002,0.,0.000031
 36,0.,0.00000002,0.00001956,0.00003570,0.00004697,0.01237890\\0.000052
 84,0.00003806,0.00000098,0.00008281,-0.00004537,-0.00000078,-0.0000987
 6,0.00004862,0.00000026,-0.00001335,0.00007312,-0.00000127,-0.00003741
 ,-0.00007884,0.00000191,-0.00004454,-0.00005737,0.00000872,-0.00005151
 ,0.00001785,-0.00003450,0.00006972,-0.00001275,0.00001442,-0.00006643,
 0.00003927,0.00001070,0.00004387,0.00001935,0.00001523,-0.00001294,-0.
 00015399,-0.00000169,0.00003879,0.00008091,0.00000027,0.00004225,0.000
 02240,-0.00001427,-0.00000434,0.00001177,0.00000004,-0.00001283,0.0000
 0532,-0.00000022,-0.00000299,-0.00000317,0.00000023,-0.00001911,-0.000
 00218,-0.00000014,0.00003394,-0.00000302,0.00000010\\\@
 The archive entry for this job was punched.


 ALL PAPERS THAT YOU SAVE WILL NEVER BE NEEDED UNTIL
 SUCH TIME AS THEY ARE DISPOSED OF, WHEN THEY BECOME
 ESSENTIAL.

           -- JOHN CORCORAN IN
              PAUL DICKSON'S "THE OFFICIAL RULES"
 Job cpu time:       0 days 19 hours 45 minutes 54.1 seconds.
 Elapsed time:       0 days  0 hours 59 minutes 18.3 seconds.
 File lengths (MBytes):  RWF=    644 Int=      0 D2E=      0 Chk=     46 Scr=      1
 Normal termination of Gaussian 16 at Wed Apr  2 14:32:41 2025.
