 Entering Gaussian System, Link 0=g16
 Initial command:
 /usr/local/gaussian16c01/g16/l1.exe "/scr/dhuang/Gau-289382.inp" -scrdir="/scr/dhuang/"
 Entering Link 1 = /usr/local/gaussian16c01/g16/l1.exe PID=    289384.
  
 Copyright (c) 1988-2019, Gaussian, Inc.  All Rights Reserved.
  
 This is part of the Gaussian(R) 16 program.  It is based on
 the Gaussian(R) 09 system (copyright 2009, Gaussian, Inc.),
 the Gaussian(R) 03 system (copyright 2003, Gaussian, Inc.),
 the Gaussian(R) 98 system (copyright 1998, Gaussian, Inc.),
 the Gaussian(R) 94 system (copyright 1995, Gaussian, Inc.),
 the Gaussian 92(TM) system (copyright 1992, Gaussian, Inc.),
 the Gaussian 90(TM) system (copyright 1990, Gaussian, Inc.),
 the Gaussian 88(TM) system (copyright 1988, Gaussian, Inc.),
 the Gaussian 86(TM) system (copyright 1986, Carnegie Mellon
 University), and the Gaussian 82(TM) system (copyright 1983,
 Carnegie Mellon University). Gaussian is a federally registered
 trademark of Gaussian, Inc.
  
 This software contains proprietary and confidential information,
 including trade secrets, belonging to Gaussian, Inc.
  
 This software is provided under written license and may be
 used, copied, transmitted, or stored only in accord with that
 written license.
  
 The following legend is applicable only to US Government
 contracts under FAR:
  
                    RESTRICTED RIGHTS LEGEND
  
 Use, reproduction and disclosure by the US Government is
 subject to restrictions as set forth in subparagraphs (a)
 and (c) of the Commercial Computer Software - Restricted
 Rights clause in FAR 52.227-19.
  
 Gaussian, Inc.
 340 Quinnipiac St., Bldg. 40, Wallingford CT 06492
  
  
 ---------------------------------------------------------------
 Warning -- This program may not be used in any manner that
 competes with the business of Gaussian, Inc. or will provide
 assistance to any competitor of Gaussian, Inc.  The licensee
 of this program is prohibited from giving any competitor of
 Gaussian, Inc. access to this program.  By using this program,
 the user acknowledges that Gaussian, Inc. is engaged in the
 business of creating and licensing software in the field of
 computational chemistry and represents and warrants to the
 licensee that it is not a competitor of Gaussian, Inc. and that
 it will not use this program in any manner prohibited above.
 ---------------------------------------------------------------
  

 Cite this work as:
 Gaussian 16, Revision C.01,
 M. J. Frisch, G. W. Trucks, H. B. Schlegel, G. E. Scuseria, 
 M. A. Robb, J. R. Cheeseman, G. Scalmani, V. Barone, 
 G. A. Petersson, H. Nakatsuji, X. Li, M. Caricato, A. V. Marenich, 
 J. Bloino, B. G. Janesko, R. Gomperts, B. Mennucci, H. P. Hratchian, 
 J. V. Ortiz, A. F. Izmaylov, J. L. Sonnenberg, D. Williams-Young, 
 F. Ding, F. Lipparini, F. Egidi, J. Goings, B. Peng, A. Petrone, 
 T. Henderson, D. Ranasinghe, V. G. Zakrzewski, J. Gao, N. Rega, 
 G. Zheng, W. Liang, M. Hada, M. Ehara, K. Toyota, R. Fukuda, 
 J. Hasegawa, M. Ishida, T. Nakajima, Y. Honda, O. Kitao, H. Nakai, 
 T. Vreven, K. Throssell, J. A. Montgomery, Jr., J. E. Peralta, 
 F. Ogliaro, M. J. Bearpark, J. J. Heyd, E. N. Brothers, K. N. Kudin, 
 V. N. Staroverov, T. A. Keith, R. Kobayashi, J. Normand, 
 K. Raghavachari, A. P. Rendell, J. C. Burant, S. S. Iyengar, 
 J. Tomasi, M. Cossi, J. M. Millam, M. Klene, C. Adamo, R. Cammi, 
 J. W. Ochterski, R. L. Martin, K. Morokuma, O. Farkas, 
 J. B. Foresman, and D. J. Fox, Gaussian, Inc., Wallingford CT, 2019.
 
 ******************************************
 Gaussian 16:  ES64L-G16RevC.01  3-Jul-2019
                 2-Apr-2025 
 ******************************************
 %nprocshared=20
 Will use up to   20 processors via shared memory.
 %mem=10000MW
 %chk=o-iPr.chk
 ------------------------------------
 # opt freq m062x/aug-cc-pvtz pop=nbo
 ------------------------------------
 1/18=20,19=15,26=3,38=1/1,3;
 2/9=110,12=2,17=6,18=5,40=1/2;
 3/5=16,6=1,7=10,11=2,25=1,30=1,71=1,74=-55/1,2,3;
 4//1;
 5/5=2,38=5/2;
 6/7=2,8=2,9=2,10=2,28=1,40=1/1,7;
 7//1,2,3,16;
 1/18=20,19=15,26=3/3(2);
 2/9=110/2;
 99//99;
 2/9=110/2;
 3/5=16,6=1,7=10,11=2,25=1,30=1,71=1,74=-55/1,2,3;
 4/5=5,16=3,69=1/1;
 5/5=2,38=5/2;
 7//1,2,3,16;
 1/18=20,19=15,26=3/3(-5);
 2/9=110/2;
 6/7=2,8=2,9=2,10=2,19=2,28=1,40=1/1,7;
 99/9=1/99;
 -----
 o-iPr
 -----
 Symbolic Z-matrix:
 Charge =  0 Multiplicity = 1
 C                    -2.3402   -0.4862    1.396 
 C                    -2.227    -1.8198    1.4587 
 C                    -1.0592   -2.386     1.142 
 C                    -0.0367   -1.5988    0.7851 
 C                    -0.1196   -0.2524    0.7346 
 C                    -1.3168    0.3203    1.0339 
 C                    -1.5677    1.6684    0.9911 
 O                    -2.6531    2.1419    1.2621 
 O                    -0.6743    2.6236    0.6391 
 C                     1.147     0.4986    0.3133 
 C                     2.4872   -0.1691    0.6908 
 C                     1.1174    0.7548   -1.2036 
 H                    -3.3398   -0.101     1.6585 
 H                    -3.0845   -2.4476    1.7543 
 H                    -0.9458   -3.4826    1.1715 
 H                     0.8952   -2.1213    0.5226 
 H                    -1.1264    3.4826    0.654 
 H                     1.2104    1.4605    0.8713 
 H                     3.3398    0.5287    0.52 
 H                     2.5107   -0.4532    1.7682 
 H                     2.7147   -1.0697    0.0788 
 H                     1.9897    1.3676   -1.5264 
 H                     0.1973    1.2931   -1.5221 
 H                     1.1481   -0.2048   -1.7682 
 

 GradGradGradGradGradGradGradGradGradGradGradGradGradGradGradGradGradGrad
 Berny optimization.
 Initialization pass.
                           ----------------------------
                           !    Initial Parameters    !
                           ! (Angstroms and Degrees)  !
 --------------------------                            --------------------------
 ! Name  Definition              Value          Derivative Info.                !
 --------------------------------------------------------------------------------
 ! R1    R(1,2)                  1.3399         estimate D2E/DX2                !
 ! R2    R(1,6)                  1.3524         estimate D2E/DX2                !
 ! R3    R(1,13)                 1.1029         estimate D2E/DX2                !
 ! R4    R(2,3)                  1.3359         estimate D2E/DX2                !
 ! R5    R(2,14)                 1.1031         estimate D2E/DX2                !
 ! R6    R(3,4)                  1.3389         estimate D2E/DX2                !
 ! R7    R(3,15)                 1.1028         estimate D2E/DX2                !
 ! R8    R(4,5)                  1.3499         estimate D2E/DX2                !
 ! R9    R(4,16)                 1.1002         estimate D2E/DX2                !
 ! R10   R(5,6)                  1.3605         estimate D2E/DX2                !
 ! R11   R(5,10)                 1.5316         estimate D2E/DX2                !
 ! R12   R(6,7)                  1.3719         estimate D2E/DX2                !
 ! R13   R(7,8)                  1.2148         estimate D2E/DX2                !
 ! R14   R(7,9)                  1.3544         estimate D2E/DX2                !
 ! R15   R(9,17)                 0.9708         estimate D2E/DX2                !
 ! R16   R(10,11)                1.5442         estimate D2E/DX2                !
 ! R17   R(10,12)                1.5387         estimate D2E/DX2                !
 ! R18   R(10,18)                1.1138         estimate D2E/DX2                !
 ! R19   R(11,19)                1.1149         estimate D2E/DX2                !
 ! R20   R(11,20)                1.1145         estimate D2E/DX2                !
 ! R21   R(11,21)                1.1124         estimate D2E/DX2                !
 ! R22   R(12,22)                1.1138         estimate D2E/DX2                !
 ! R23   R(12,23)                1.1126         estimate D2E/DX2                !
 ! R24   R(12,24)                1.1138         estimate D2E/DX2                !
 ! A1    A(2,1,6)              122.8313         estimate D2E/DX2                !
 ! A2    A(2,1,13)             114.3964         estimate D2E/DX2                !
 ! A3    A(6,1,13)             122.7713         estimate D2E/DX2                !
 ! A4    A(1,2,3)              118.9871         estimate D2E/DX2                !
 ! A5    A(1,2,14)             120.8859         estimate D2E/DX2                !
 ! A6    A(3,2,14)             120.1227         estimate D2E/DX2                !
 ! A7    A(2,3,4)              118.7901         estimate D2E/DX2                !
 ! A8    A(2,3,15)             120.3299         estimate D2E/DX2                !
 ! A9    A(4,3,15)             120.8795         estimate D2E/DX2                !
 ! A10   A(3,4,5)              123.3333         estimate D2E/DX2                !
 ! A11   A(3,4,16)             115.548          estimate D2E/DX2                !
 ! A12   A(5,4,16)             121.1175         estimate D2E/DX2                !
 ! A13   A(4,5,6)              117.7544         estimate D2E/DX2                !
 ! A14   A(4,5,10)             116.6522         estimate D2E/DX2                !
 ! A15   A(6,5,10)             125.5804         estimate D2E/DX2                !
 ! A16   A(1,6,5)              118.2809         estimate D2E/DX2                !
 ! A17   A(1,6,7)              117.127          estimate D2E/DX2                !
 ! A18   A(5,6,7)              124.5917         estimate D2E/DX2                !
 ! A19   A(6,7,8)              122.6464         estimate D2E/DX2                !
 ! A20   A(6,7,9)              125.484          estimate D2E/DX2                !
 ! A21   A(8,7,9)              111.8663         estimate D2E/DX2                !
 ! A22   A(7,9,17)             108.2309         estimate D2E/DX2                !
 ! A23   A(5,10,11)            116.0067         estimate D2E/DX2                !
 ! A24   A(5,10,12)            109.6892         estimate D2E/DX2                !
 ! A25   A(5,10,18)            109.434          estimate D2E/DX2                !
 ! A26   A(11,10,12)           109.2508         estimate D2E/DX2                !
 ! A27   A(11,10,18)           101.6273         estimate D2E/DX2                !
 ! A28   A(12,10,18)           110.5597         estimate D2E/DX2                !
 ! A29   A(10,11,19)           110.832          estimate D2E/DX2                !
 ! A30   A(10,11,20)           111.3991         estimate D2E/DX2                !
 ! A31   A(10,11,21)           113.1464         estimate D2E/DX2                !
 ! A32   A(19,11,20)           106.9491         estimate D2E/DX2                !
 ! A33   A(19,11,21)           105.4288         estimate D2E/DX2                !
 ! A34   A(20,11,21)           108.7338         estimate D2E/DX2                !
 ! A35   A(10,12,22)           111.2385         estimate D2E/DX2                !
 ! A36   A(10,12,23)           112.2531         estimate D2E/DX2                !
 ! A37   A(10,12,24)           110.8398         estimate D2E/DX2                !
 ! A38   A(22,12,23)           107.3683         estimate D2E/DX2                !
 ! A39   A(22,12,24)           107.7887         estimate D2E/DX2                !
 ! A40   A(23,12,24)           107.1295         estimate D2E/DX2                !
 ! D1    D(6,1,2,3)             -0.5093         estimate D2E/DX2                !
 ! D2    D(6,1,2,14)          -179.7489         estimate D2E/DX2                !
 ! D3    D(13,1,2,3)           179.1377         estimate D2E/DX2                !
 ! D4    D(13,1,2,14)           -0.102          estimate D2E/DX2                !
 ! D5    D(2,1,6,5)             -0.6769         estimate D2E/DX2                !
 ! D6    D(2,1,6,7)            179.1052         estimate D2E/DX2                !
 ! D7    D(13,1,6,5)           179.7055         estimate D2E/DX2                !
 ! D8    D(13,1,6,7)            -0.5124         estimate D2E/DX2                !
 ! D9    D(1,2,3,4)              0.6569         estimate D2E/DX2                !
 ! D10   D(1,2,3,15)          -179.0913         estimate D2E/DX2                !
 ! D11   D(14,2,3,4)           179.9025         estimate D2E/DX2                !
 ! D12   D(14,2,3,15)            0.1543         estimate D2E/DX2                !
 ! D13   D(2,3,4,5)              0.3916         estimate D2E/DX2                !
 ! D14   D(2,3,4,16)          -179.2187         estimate D2E/DX2                !
 ! D15   D(15,3,4,5)          -179.8616         estimate D2E/DX2                !
 ! D16   D(15,3,4,16)            0.528          estimate D2E/DX2                !
 ! D17   D(3,4,5,6)             -1.5636         estimate D2E/DX2                !
 ! D18   D(3,4,5,10)           179.6731         estimate D2E/DX2                !
 ! D19   D(16,4,5,6)           178.0258         estimate D2E/DX2                !
 ! D20   D(16,4,5,10)           -0.7375         estimate D2E/DX2                !
 ! D21   D(4,5,6,1)              1.6492         estimate D2E/DX2                !
 ! D22   D(4,5,6,7)           -178.1152         estimate D2E/DX2                !
 ! D23   D(10,5,6,1)          -179.7098         estimate D2E/DX2                !
 ! D24   D(10,5,6,7)             0.5257         estimate D2E/DX2                !
 ! D25   D(4,5,10,11)          -30.7361         estimate D2E/DX2                !
 ! D26   D(4,5,10,12)           93.6115         estimate D2E/DX2                !
 ! D27   D(4,5,10,18)         -144.9368         estimate D2E/DX2                !
 ! D28   D(6,5,10,11)          150.6096         estimate D2E/DX2                !
 ! D29   D(6,5,10,12)          -85.0428         estimate D2E/DX2                !
 ! D30   D(6,5,10,18)           36.4089         estimate D2E/DX2                !
 ! D31   D(1,6,7,8)              0.0037         estimate D2E/DX2                !
 ! D32   D(1,6,7,9)           -179.2773         estimate D2E/DX2                !
 ! D33   D(5,6,7,8)            179.7707         estimate D2E/DX2                !
 ! D34   D(5,6,7,9)              0.4897         estimate D2E/DX2                !
 ! D35   D(6,7,9,17)           177.2957         estimate D2E/DX2                !
 ! D36   D(8,7,9,17)            -2.052          estimate D2E/DX2                !
 ! D37   D(5,10,11,19)        -169.3479         estimate D2E/DX2                !
 ! D38   D(5,10,11,20)         -50.3931         estimate D2E/DX2                !
 ! D39   D(5,10,11,21)          72.4729         estimate D2E/DX2                !
 ! D40   D(12,10,11,19)         66.0787         estimate D2E/DX2                !
 ! D41   D(12,10,11,20)       -174.9665         estimate D2E/DX2                !
 ! D42   D(12,10,11,21)        -52.1005         estimate D2E/DX2                !
 ! D43   D(18,10,11,19)        -50.77           estimate D2E/DX2                !
 ! D44   D(18,10,11,20)         68.1848         estimate D2E/DX2                !
 ! D45   D(18,10,11,21)       -168.9492         estimate D2E/DX2                !
 ! D46   D(5,10,12,22)         175.6798         estimate D2E/DX2                !
 ! D47   D(5,10,12,23)          55.3442         estimate D2E/DX2                !
 ! D48   D(5,10,12,24)         -64.4091         estimate D2E/DX2                !
 ! D49   D(11,10,12,22)        -56.1314         estimate D2E/DX2                !
 ! D50   D(11,10,12,23)       -176.4669         estimate D2E/DX2                !
 ! D51   D(11,10,12,24)         63.7798         estimate D2E/DX2                !
 ! D52   D(18,10,12,22)         54.9068         estimate D2E/DX2                !
 ! D53   D(18,10,12,23)        -65.4287         estimate D2E/DX2                !
 ! D54   D(18,10,12,24)        174.818          estimate D2E/DX2                !
 --------------------------------------------------------------------------------
 Trust Radius=3.00D-01 FncErr=1.00D-07 GrdErr=1.00D-06 EigMax=2.50D+02 EigMin=1.00D-04
 Number of steps in this run=    128 maximum allowed number of steps=    144.
 GradGradGradGradGradGradGradGradGradGradGradGradGradGradGradGradGradGrad

                          Input orientation:                          
 ---------------------------------------------------------------------
 Center     Atomic      Atomic             Coordinates (Angstroms)
 Number     Number       Type             X           Y           Z
 ---------------------------------------------------------------------
      1          6           0       -2.340200   -0.486200    1.396000
      2          6           0       -2.227000   -1.819800    1.458700
      3          6           0       -1.059200   -2.386000    1.142000
      4          6           0       -0.036700   -1.598800    0.785100
      5          6           0       -0.119600   -0.252400    0.734600
      6          6           0       -1.316800    0.320300    1.033900
      7          6           0       -1.567700    1.668400    0.991100
      8          8           0       -2.653100    2.141900    1.262100
      9          8           0       -0.674300    2.623600    0.639100
     10          6           0        1.147000    0.498600    0.313300
     11          6           0        2.487200   -0.169100    0.690800
     12          6           0        1.117400    0.754800   -1.203600
     13          1           0       -3.339800   -0.101000    1.658500
     14          1           0       -3.084500   -2.447600    1.754300
     15          1           0       -0.945800   -3.482600    1.171500
     16          1           0        0.895200   -2.121300    0.522600
     17          1           0       -1.126400    3.482600    0.654000
     18          1           0        1.210400    1.460500    0.871300
     19          1           0        3.339800    0.528700    0.520000
     20          1           0        2.510700   -0.453200    1.768200
     21          1           0        2.714700   -1.069700    0.078800
     22          1           0        1.989700    1.367600   -1.526400
     23          1           0        0.197300    1.293100   -1.522100
     24          1           0        1.148100   -0.204800   -1.768200
 ---------------------------------------------------------------------
                    Distance matrix (angstroms):
                    1          2          3          4          5
     1  C    0.000000
     2  C    1.339864   0.000000
     3  C    2.305367   1.335904   0.000000
     4  C    2.630055   2.302171   1.338868   0.000000
     5  C    2.328772   2.724371   2.366658   1.349895   0.000000
     6  C    1.352371   2.364095   2.720681   2.320238   1.360461
     7  C    2.324436   3.580624   4.088949   3.614000   2.419144
     8  O    2.650046   3.989396   4.801752   4.589762   3.525557
     9  O    3.608182   4.777701   5.049470   4.272764   2.930561
    10  C    3.781882   4.250976   3.724913   2.454145   1.531591
    11  C    4.888931   5.053530   4.206564   2.902242   2.608498
    12  C    4.500333   4.990132   4.483754   3.290335   2.510227
    13  H    1.102944   2.057308   3.269424   3.730510   3.353536
    14  H    2.128251   1.103095   2.116730   3.308911   3.827443
    15  H    3.312577   2.118693   1.102842   2.127080   3.362689
    16  H    3.728833   3.273426   2.067221   1.100159   2.137183
    17  H    4.216070   5.474880   5.889238   5.198582   3.869156
    18  H    4.083101   4.787601   4.474363   3.304846   2.172927
    19  H    5.836077   6.114399   5.313526   3.999661   3.552973
    20  H    4.865270   4.940565   4.107557   2.961103   2.833219
    21  H    5.256187   5.185284   4.135863   2.889465   3.021806
    22  H    5.543016   6.070494   5.523193   4.271868   3.490798
    23  H    4.256774   4.944952   4.712961   3.706887   2.753487
    24  H    4.718006   4.940891   4.254300   3.141071   2.805947
                    6          7          8          9         10
     6  C    0.000000
     7  C    1.371917   0.000000
     8  O    2.270683   1.214799   0.000000
     9  O    2.423606   1.354428   2.129745   0.000000
    10  C    2.573201   3.032728   4.247519   2.817606   0.000000
    11  C    3.850668   4.461928   5.664785   4.218641   1.544171
    12  C    3.334745   3.586242   4.713851   3.177758   1.538668
    13  H    2.158738   2.591628   2.378926   3.945569   4.722336
    14  H    3.362292   4.452484   4.635933   5.724492   5.353706
    15  H    3.823431   5.191542   5.878612   6.135376   4.578894
    16  H    3.334034   4.543918   5.595728   4.999098   2.640281
    17  H    3.190724   1.897289   2.120867   0.970823   3.766786
    18  H    2.777271   2.788443   3.942545   2.226839   1.113838
    19  H    4.689504   5.060080   6.250438   4.529436   2.202726
    20  H    3.973318   4.662448   5.801337   4.570097   2.209601
    21  H    4.370047   5.164149   6.366149   5.043781   2.229852
    22  H    4.311023   4.368453   5.470911   3.655656   2.202226
    23  H    3.126016   3.093905   4.073943   2.683412   2.214013
    24  H    3.768717   4.300952   5.398040   4.137159   2.197138
                   11         12         13         14         15
    11  C    0.000000
    12  C    2.513701   0.000000
    13  H    5.907200   5.365691   0.000000
    14  H    6.112809   6.054792   2.362390   0.000000
    15  H    4.795398   5.277637   4.171765   2.446409   0.000000
    16  H    2.524647   3.361709   4.827743   4.178704   2.379809
    17  H    5.137545   3.990765   4.330167   6.341300   6.986733
    18  H    2.078075   2.193598   4.874658   5.873594   5.401255
    19  H    1.114910   2.821521   6.805128   7.187036   5.906043
    20  H    1.114476   3.497448   5.862118   5.940041   4.634728
    21  H    1.112376   2.743122   6.331730   6.191658   4.518334
    22  H    2.743160   1.113836   6.379964   7.146065   6.278556
    23  H    3.504083   1.112562   4.956895   5.958007   5.600845
    24  H    2.800204   1.113799   5.647503   5.945844   4.875472
                   16         17         18         19         20
    16  H    0.000000
    17  H    5.958844   0.000000
    18  H    3.612511   3.097861   0.000000
    19  H    3.605354   5.356344   2.350746   0.000000
    20  H    2.635131   5.473615   2.481422   1.791518   0.000000
    21  H    2.147883   5.984007   3.048424   1.772086   1.809906
    22  H    4.191510   4.351718   2.522876   2.591192   3.800150
    23  H    4.040543   3.358795   2.604373   3.824890   4.384912
    24  H    2.997448   4.963600   3.121549   3.252296   3.797961
                   21         22         23         24
    21  H    0.000000
    22  H    3.007112   0.000000
    23  H    3.805655   1.793953   0.000000
    24  H    2.571711   1.799778   1.791170   0.000000
 Stoichiometry    C10H12O2
 Framework group  C1[X(C10H12O2)]
 Deg. of freedom    66
 Full point group                 C1      NOp   1
 Largest Abelian subgroup         C1      NOp   1
 Largest concise Abelian subgroup C1      NOp   1
                         Standard orientation:                         
 ---------------------------------------------------------------------
 Center     Atomic      Atomic             Coordinates (Angstroms)
 Number     Number       Type             X           Y           Z
 ---------------------------------------------------------------------
      1          6           0       -1.925526    0.740428    0.021826
      2          6           0       -1.786519    2.070383    0.106272
      3          6           0       -0.557300    2.593374    0.118086
      4          6           0        0.494717    1.769758    0.031578
      5          6           0        0.380275    0.428989   -0.075460
      6          6           0       -0.871786   -0.103019   -0.062651
      7          6           0       -1.148380   -1.445314   -0.125073
      8          8           0       -2.281673   -1.882415   -0.107010
      9          8           0       -0.226992   -2.435315   -0.198659
     10          6           0        1.685554   -0.366410   -0.172190
     11          6           0        2.868878    0.354578   -0.853650
     12          6           0        2.114532   -0.831242    1.230453
     13          1           0       -2.971277    0.390052    0.033110
     14          1           0       -2.668862    2.728523    0.177975
     15          1           0       -0.416893    3.684020    0.201986
     16          1           0        1.481323    2.255730    0.059668
     17          1           0       -0.694037   -3.286339   -0.187520
     18          1           0        1.537536   -1.240998   -0.845853
     19          1           0        3.705493   -0.355550   -1.050674
     20          1           0        2.570426    0.785882   -1.836991
     21          1           0        3.307746    1.162534   -0.227564
     22          1           0        3.019887   -1.478230    1.181771
     23          1           0        1.317358   -1.413600    1.743450
     24          1           0        2.353956    0.040662    1.880844
 ---------------------------------------------------------------------
 Rotational constants (GHZ):           1.1164605           1.0135934           0.5828881
 Standard basis: Aug-CC-pVTZ (5D, 7F)
 There are   960 symmetry adapted cartesian basis functions of A   symmetry.
 There are   828 symmetry adapted basis functions of A   symmetry.
   828 basis functions,  1188 primitive gaussians,   960 cartesian basis functions
    44 alpha electrons       44 beta electrons
       nuclear repulsion energy       705.1807770135 Hartrees.
 NAtoms=   24 NActive=   24 NUniq=   24 SFac= 1.00D+00 NAtFMM=   60 NAOKFM=F Big=F
 Integral buffers will be    131072 words long.
 Raffenetti 2 integral format.
 Two-electron integral symmetry is turned on.
 One-electron integrals computed using PRISM.
 NBasis=   828 RedAO= T EigKep=  1.15D-06  NBF=   828
 NBsUse=   823 1.00D-06 EigRej=  7.03D-07 NBFU=   823
 ExpMin= 2.53D-02 ExpMax= 1.53D+04 ExpMxC= 5.22D+02 IAcc=3 IRadAn=         5 AccDes= 0.00D+00
 Harris functional with IExCor= 1009 and IRadAn=       5 diagonalized for initial guess.
 HarFok:  IExCor= 1009 AccDes= 0.00D+00 IRadAn=         5 IDoV= 1 UseB2=F ITyADJ=14
 ICtDFT=  3500011 ScaDFX=  1.000000  1.000000  1.000000  1.000000
 FoFCou: FMM=F IPFlag=           0 FMFlag=      100000 FMFlg1=           0
         NFxFlg=           0 DoJE=T BraDBF=F KetDBF=T FulRan=T
         wScrn=  0.000000 ICntrl=       500 IOpCl=  0 I1Cent=   200000004 NGrid=           0
         NMat0=    1 NMatS0=      1 NMatT0=    0 NMatD0=    1 NMtDS0=    0 NMtDT0=    0
 Petite list used in FoFCou.
 Requested convergence on RMS density matrix=1.00D-08 within 128 cycles.
 Requested convergence on MAX density matrix=1.00D-06.
 Requested convergence on             energy=1.00D-06.
 No special actions if energy rises.
 SCF Done:  E(RM062X) =  -538.701631434     A.U. after   14 cycles
            NFock= 14  Conv=0.25D-08     -V/T= 2.0040

 **********************************************************************

            Population analysis using the SCF Density.

 **********************************************************************

 Orbital symmetries:
       Occupied  (A) (A) (A) (A) (A) (A) (A) (A) (A) (A) (A) (A)
                 (A) (A) (A) (A) (A) (A) (A) (A) (A) (A) (A) (A)
                 (A) (A) (A) (A) (A) (A) (A) (A) (A) (A) (A) (A)
                 (A) (A) (A) (A) (A) (A) (A) (A)
       Virtual   (A) (A) (A) (A) (A) (A) (A) (A) (A) (A) (A) (A)
                 (A) (A) (A) (A) (A) (A) (A) (A) (A) (A) (A) (A)
                 (A) (A) (A) (A) (A) (A) (A) (A) (A) (A) (A) (A)
                 (A) (A) (A) (A) (A) (A) (A) (A) (A) (A) (A) (A)
                 (A) (A) (A) (A) (A) (A) (A) (A) (A) (A) (A) (A)
                 (A) (A) (A) (A) (A) (A) (A) (A) (A) (A) (A) (A)
                 (A) (A) (A) (A) (A) (A) (A) (A) (A) (A) (A) (A)
                 (A) (A) (A) (A) (A) (A) (A) (A) (A) (A) (A) (A)
                 (A) (A) (A) (A) (A) (A) (A) (A) (A) (A) (A) (A)
                 (A) (A) (A) (A) (A) (A) (A) (A) (A) (A) (A) (A)
                 (A) (A) (A) (A) (A) (A) (A) (A) (A) (A) (A) (A)
                 (A) (A) (A) (A) (A) (A) (A) (A) (A) (A) (A) (A)
                 (A) (A) (A) (A) (A) (A) (A) (A) (A) (A) (A) (A)
                 (A) (A) (A) (A) (A) (A) (A) (A) (A) (A) (A) (A)
                 (A) (A) (A) (A) (A) (A) (A) (A) (A) (A) (A) (A)
                 (A) (A) (A) (A) (A) (A) (A) (A) (A) (A) (A) (A)
                 (A) (A) (A) (A) (A) (A) (A) (A) (A) (A) (A) (A)
                 (A) (A) (A) (A) (A) (A) (A) (A) (A) (A) (A) (A)
                 (A) (A) (A) (A) (A) (A) (A) (A) (A) (A) (A) (A)
                 (A) (A) (A) (A) (A) (A) (A) (A) (A) (A) (A) (A)
                 (A) (A) (A) (A) (A) (A) (A) (A) (A) (A) (A) (A)
                 (A) (A) (A) (A) (A) (A) (A) (A) (A) (A) (A) (A)
                 (A) (A) (A) (A) (A) (A) (A) (A) (A) (A) (A) (A)
                 (A) (A) (A) (A) (A) (A) (A) (A) (A) (A) (A) (A)
                 (A) (A) (A) (A) (A) (A) (A) (A) (A) (A) (A) (A)
                 (A) (A) (A) (A) (A) (A) (A) (A) (A) (A) (A) (A)
                 (A) (A) (A) (A) (A) (A) (A) (A) (A) (A) (A) (A)
                 (A) (A) (A) (A) (A) (A) (A) (A) (A) (A) (A) (A)
                 (A) (A) (A) (A) (A) (A) (A) (A) (A) (A) (A) (A)
                 (A) (A) (A) (A) (A) (A) (A) (A) (A) (A) (A) (A)
                 (A) (A) (A) (A) (A) (A) (A) (A) (A) (A) (A) (A)
                 (A) (A) (A) (A) (A) (A) (A) (A) (A) (A) (A) (A)
                 (A) (A) (A) (A) (A) (A) (A) (A) (A) (A) (A) (A)
                 (A) (A) (A) (A) (A) (A) (A) (A) (A) (A) (A) (A)
                 (A) (A) (A) (A) (A) (A) (A) (A) (A) (A) (A) (A)
                 (A) (A) (A) (A) (A) (A) (A) (A) (A) (A) (A) (A)
                 (A) (A) (A) (A) (A) (A) (A) (A) (A) (A) (A) (A)
                 (A) (A) (A) (A) (A) (A) (A) (A) (A) (A) (A) (A)
                 (A) (A) (A) (A) (A) (A) (A) (A) (A) (A) (A) (A)
                 (A) (A) (A) (A) (A) (A) (A) (A) (A) (A) (A) (A)
                 (A) (A) (A) (A) (A) (A) (A) (A) (A) (A) (A) (A)
                 (A) (A) (A) (A) (A) (A) (A) (A) (A) (A) (A) (A)
                 (A) (A) (A) (A) (A) (A) (A) (A) (A) (A) (A) (A)
                 (A) (A) (A) (A) (A) (A) (A) (A) (A) (A) (A) (A)
                 (A) (A) (A) (A) (A) (A) (A) (A) (A) (A) (A) (A)
                 (A) (A) (A) (A) (A) (A) (A) (A) (A) (A) (A) (A)
                 (A) (A) (A) (A) (A) (A) (A) (A) (A) (A) (A) (A)
                 (A) (A) (A) (A) (A) (A) (A) (A) (A) (A) (A) (A)
                 (A) (A) (A) (A) (A) (A) (A) (A) (A) (A) (A) (A)
                 (A) (A) (A) (A) (A) (A) (A) (A) (A) (A) (A) (A)
                 (A) (A) (A) (A) (A) (A) (A) (A) (A) (A) (A) (A)
                 (A) (A) (A) (A) (A) (A) (A) (A) (A) (A) (A) (A)
                 (A) (A) (A) (A) (A) (A) (A) (A) (A) (A) (A) (A)
                 (A) (A) (A) (A) (A) (A) (A) (A) (A) (A) (A) (A)
                 (A) (A) (A) (A) (A) (A) (A) (A) (A) (A) (A) (A)
                 (A) (A) (A) (A) (A) (A) (A) (A) (A) (A) (A) (A)
                 (A) (A) (A) (A) (A) (A) (A) (A) (A) (A) (A) (A)
                 (A) (A) (A) (A) (A) (A) (A) (A) (A) (A) (A) (A)
                 (A) (A) (A) (A) (A) (A) (A) (A) (A) (A) (A) (A)
                 (A) (A) (A) (A) (A) (A) (A) (A) (A) (A) (A) (A)
                 (A) (A) (A) (A) (A) (A) (A) (A) (A) (A) (A) (A)
                 (A) (A) (A) (A) (A) (A) (A) (A) (A) (A) (A) (A)
                 (A) (A) (A) (A) (A) (A) (A) (A) (A) (A) (A) (A)
                 (A) (A) (A) (A) (A) (A) (A) (A) (A) (A) (A) (A)
                 (A) (A) (A) (A) (A) (A) (A) (A) (A) (A) (A)
 The electronic state is 1-A.
 Alpha  occ. eigenvalues --  -19.66243 -19.59906 -10.66921 -10.56200 -10.55402
 Alpha  occ. eigenvalues --  -10.55305 -10.54853 -10.54787 -10.54014 -10.53950
 Alpha  occ. eigenvalues --  -10.53763 -10.53527  -1.23826  -1.12206  -1.01254
 Alpha  occ. eigenvalues --   -0.91708  -0.89692  -0.84739  -0.77491  -0.76964
 Alpha  occ. eigenvalues --   -0.72237  -0.67951  -0.66200  -0.61894  -0.57955
 Alpha  occ. eigenvalues --   -0.56317  -0.54741  -0.54636  -0.51943  -0.51194
 Alpha  occ. eigenvalues --   -0.50167  -0.48638  -0.47205  -0.45899  -0.45027
 Alpha  occ. eigenvalues --   -0.44116  -0.42238  -0.40504  -0.39499  -0.39104
 Alpha  occ. eigenvalues --   -0.37710  -0.34981  -0.33014  -0.32101
 Alpha virt. eigenvalues --   -0.03112  -0.00897  -0.00081   0.00381   0.00808
 Alpha virt. eigenvalues --    0.01566   0.01733   0.02123   0.02443   0.02986
 Alpha virt. eigenvalues --    0.03466   0.03883   0.04450   0.05308   0.05562
 Alpha virt. eigenvalues --    0.05871   0.06737   0.07098   0.07351   0.07658
 Alpha virt. eigenvalues --    0.07850   0.08152   0.08569   0.08773   0.09170
 Alpha virt. eigenvalues --    0.09425   0.09781   0.10043   0.10283   0.10549
 Alpha virt. eigenvalues --    0.10727   0.11049   0.11352   0.11785   0.12205
 Alpha virt. eigenvalues --    0.12734   0.12758   0.12896   0.13206   0.13587
 Alpha virt. eigenvalues --    0.14051   0.14329   0.15954   0.16001   0.16118
 Alpha virt. eigenvalues --    0.16686   0.17411   0.17886   0.18412   0.18751
 Alpha virt. eigenvalues --    0.18959   0.19328   0.19793   0.20347   0.20727
 Alpha virt. eigenvalues --    0.20901   0.21271   0.21612   0.21916   0.22234
 Alpha virt. eigenvalues --    0.22553   0.23014   0.23151   0.23813   0.23899
 Alpha virt. eigenvalues --    0.24015   0.24452   0.24762   0.25196   0.26264
 Alpha virt. eigenvalues --    0.26524   0.27034   0.27547   0.28155   0.28631
 Alpha virt. eigenvalues --    0.28853   0.28964   0.29390   0.29503   0.29671
 Alpha virt. eigenvalues --    0.29765   0.30730   0.31175   0.31722   0.32408
 Alpha virt. eigenvalues --    0.32522   0.32608   0.33126   0.33672   0.33791
 Alpha virt. eigenvalues --    0.33977   0.34503   0.34684   0.35307   0.35833
 Alpha virt. eigenvalues --    0.35890   0.35978   0.36389   0.36833   0.37145
 Alpha virt. eigenvalues --    0.37558   0.37724   0.37923   0.38274   0.38794
 Alpha virt. eigenvalues --    0.39189   0.39409   0.39771   0.39997   0.40403
 Alpha virt. eigenvalues --    0.40843   0.41326   0.41725   0.41932   0.42402
 Alpha virt. eigenvalues --    0.42673   0.42944   0.43436   0.43902   0.44120
 Alpha virt. eigenvalues --    0.44562   0.44728   0.45277   0.45494   0.46090
 Alpha virt. eigenvalues --    0.46507   0.46889   0.47315   0.47710   0.47908
 Alpha virt. eigenvalues --    0.48539   0.49107   0.49544   0.49637   0.50311
 Alpha virt. eigenvalues --    0.50545   0.51035   0.51610   0.52141   0.52439
 Alpha virt. eigenvalues --    0.53109   0.54393   0.54832   0.55234   0.55842
 Alpha virt. eigenvalues --    0.56447   0.56765   0.57802   0.58119   0.58307
 Alpha virt. eigenvalues --    0.58863   0.59530   0.59847   0.60363   0.60549
 Alpha virt. eigenvalues --    0.61532   0.61804   0.61984   0.63159   0.63308
 Alpha virt. eigenvalues --    0.63958   0.64775   0.65526   0.65807   0.66696
 Alpha virt. eigenvalues --    0.66918   0.67657   0.68386   0.69087   0.69697
 Alpha virt. eigenvalues --    0.70232   0.70656   0.71548   0.71823   0.72346
 Alpha virt. eigenvalues --    0.73126   0.73295   0.73672   0.74084   0.74481
 Alpha virt. eigenvalues --    0.74863   0.75353   0.75521   0.75753   0.76066
 Alpha virt. eigenvalues --    0.76262   0.76716   0.77343   0.77525   0.78320
 Alpha virt. eigenvalues --    0.78515   0.79046   0.80138   0.80602   0.80805
 Alpha virt. eigenvalues --    0.81124   0.81580   0.81998   0.82533   0.83327
 Alpha virt. eigenvalues --    0.83630   0.84387   0.84566   0.85084   0.85536
 Alpha virt. eigenvalues --    0.85821   0.86288   0.86479   0.87343   0.87561
 Alpha virt. eigenvalues --    0.87799   0.88437   0.89067   0.89237   0.89925
 Alpha virt. eigenvalues --    0.90715   0.91446   0.91726   0.92073   0.92600
 Alpha virt. eigenvalues --    0.93133   0.93426   0.94244   0.94486   0.94774
 Alpha virt. eigenvalues --    0.95344   0.95769   0.96141   0.96658   0.97290
 Alpha virt. eigenvalues --    0.97809   0.98053   0.98541   0.98737   0.99048
 Alpha virt. eigenvalues --    0.99274   1.00050   1.00594   1.01142   1.01865
 Alpha virt. eigenvalues --    1.02331   1.02972   1.03710   1.04137   1.04464
 Alpha virt. eigenvalues --    1.04881   1.05479   1.05798   1.06474   1.06859
 Alpha virt. eigenvalues --    1.07403   1.07763   1.08443   1.09109   1.09583
 Alpha virt. eigenvalues --    1.10213   1.10441   1.10672   1.11570   1.12113
 Alpha virt. eigenvalues --    1.12294   1.13168   1.13779   1.14518   1.15054
 Alpha virt. eigenvalues --    1.15165   1.16307   1.17020   1.17582   1.18380
 Alpha virt. eigenvalues --    1.18891   1.19066   1.19488   1.19817   1.21136
 Alpha virt. eigenvalues --    1.21895   1.22371   1.22805   1.24062   1.24885
 Alpha virt. eigenvalues --    1.25256   1.25305   1.26787   1.27487   1.28588
 Alpha virt. eigenvalues --    1.28942   1.29206   1.29421   1.29865   1.30759
 Alpha virt. eigenvalues --    1.31485   1.33098   1.33167   1.33826   1.34525
 Alpha virt. eigenvalues --    1.35182   1.35461   1.36054   1.37323   1.37782
 Alpha virt. eigenvalues --    1.38379   1.38651   1.39633   1.40129   1.40862
 Alpha virt. eigenvalues --    1.41129   1.41792   1.41927   1.42276   1.43006
 Alpha virt. eigenvalues --    1.43594   1.44990   1.45435   1.46304   1.46471
 Alpha virt. eigenvalues --    1.47344   1.48128   1.49216   1.49471   1.50017
 Alpha virt. eigenvalues --    1.50694   1.51294   1.52257   1.52805   1.53465
 Alpha virt. eigenvalues --    1.54084   1.54792   1.54998   1.55549   1.56558
 Alpha virt. eigenvalues --    1.57169   1.57766   1.58394   1.59467   1.60054
 Alpha virt. eigenvalues --    1.60581   1.60789   1.61661   1.62218   1.62453
 Alpha virt. eigenvalues --    1.63256   1.64070   1.64417   1.65145   1.65367
 Alpha virt. eigenvalues --    1.65786   1.67101   1.67479   1.68398   1.69213
 Alpha virt. eigenvalues --    1.69980   1.69996   1.71188   1.71315   1.72285
 Alpha virt. eigenvalues --    1.72943   1.73277   1.73315   1.74445   1.75047
 Alpha virt. eigenvalues --    1.76186   1.76754   1.76838   1.77451   1.77730
 Alpha virt. eigenvalues --    1.78638   1.79851   1.81438   1.81534   1.82062
 Alpha virt. eigenvalues --    1.82598   1.84488   1.84862   1.85263   1.86441
 Alpha virt. eigenvalues --    1.87239   1.87914   1.89346   1.89650   1.90046
 Alpha virt. eigenvalues --    1.91408   1.91889   1.92538   1.93386   1.93610
 Alpha virt. eigenvalues --    1.94533   1.95237   1.95435   1.95701   1.97027
 Alpha virt. eigenvalues --    1.98446   1.98562   1.99395   2.00195   2.00838
 Alpha virt. eigenvalues --    2.01433   2.02214   2.02981   2.03804   2.04712
 Alpha virt. eigenvalues --    2.05329   2.06783   2.07594   2.07947   2.08486
 Alpha virt. eigenvalues --    2.10126   2.10522   2.11817   2.12490   2.13532
 Alpha virt. eigenvalues --    2.13990   2.14376   2.15355   2.15954   2.17060
 Alpha virt. eigenvalues --    2.17195   2.19723   2.20485   2.21388   2.21914
 Alpha virt. eigenvalues --    2.23337   2.24819   2.26312   2.26980   2.27758
 Alpha virt. eigenvalues --    2.28093   2.29098   2.30342   2.30838   2.32008
 Alpha virt. eigenvalues --    2.33637   2.35228   2.35524   2.36653   2.37691
 Alpha virt. eigenvalues --    2.39125   2.39429   2.40247   2.42160   2.42427
 Alpha virt. eigenvalues --    2.43639   2.44298   2.45201   2.45644   2.47805
 Alpha virt. eigenvalues --    2.48844   2.50192   2.51947   2.54573   2.55749
 Alpha virt. eigenvalues --    2.56901   2.58160   2.59849   2.61871   2.63242
 Alpha virt. eigenvalues --    2.64490   2.65921   2.66520   2.68393   2.72004
 Alpha virt. eigenvalues --    2.75222   2.75487   2.77244   2.78912   2.79111
 Alpha virt. eigenvalues --    2.81832   2.82147   2.83590   2.88153   2.89492
 Alpha virt. eigenvalues --    2.91135   2.92615   2.94794   2.95439   2.97032
 Alpha virt. eigenvalues --    2.98128   3.00422   3.01809   3.03325   3.04780
 Alpha virt. eigenvalues --    3.06793   3.09053   3.09622   3.10101   3.11599
 Alpha virt. eigenvalues --    3.12320   3.13458   3.15518   3.16759   3.17738
 Alpha virt. eigenvalues --    3.18142   3.18777   3.19897   3.20906   3.21801
 Alpha virt. eigenvalues --    3.22388   3.23208   3.23667   3.24303   3.25030
 Alpha virt. eigenvalues --    3.26951   3.27355   3.27869   3.28618   3.29367
 Alpha virt. eigenvalues --    3.30714   3.32352   3.34436   3.35128   3.35556
 Alpha virt. eigenvalues --    3.36765   3.36964   3.37812   3.38927   3.39992
 Alpha virt. eigenvalues --    3.40411   3.41484   3.42829   3.44056   3.44709
 Alpha virt. eigenvalues --    3.45437   3.46507   3.46860   3.48440   3.48854
 Alpha virt. eigenvalues --    3.49109   3.50394   3.50797   3.51305   3.52237
 Alpha virt. eigenvalues --    3.53161   3.53453   3.54845   3.55753   3.56462
 Alpha virt. eigenvalues --    3.57067   3.57530   3.58263   3.59157   3.59969
 Alpha virt. eigenvalues --    3.60924   3.61498   3.62140   3.63839   3.64474
 Alpha virt. eigenvalues --    3.64863   3.65680   3.65885   3.67116   3.68019
 Alpha virt. eigenvalues --    3.69089   3.69489   3.70340   3.71048   3.71960
 Alpha virt. eigenvalues --    3.72394   3.73586   3.74756   3.74962   3.76915
 Alpha virt. eigenvalues --    3.77183   3.77616   3.78210   3.80124   3.80206
 Alpha virt. eigenvalues --    3.81452   3.82217   3.83423   3.84552   3.85144
 Alpha virt. eigenvalues --    3.86272   3.86994   3.87948   3.88345   3.89573
 Alpha virt. eigenvalues --    3.90226   3.91095   3.91529   3.92521   3.92770
 Alpha virt. eigenvalues --    3.93377   3.94045   3.94669   3.96332   3.97222
 Alpha virt. eigenvalues --    3.98113   3.99578   3.99839   4.00237   4.01678
 Alpha virt. eigenvalues --    4.02292   4.03008   4.04790   4.05568   4.06410
 Alpha virt. eigenvalues --    4.06824   4.07602   4.08280   4.09481   4.11090
 Alpha virt. eigenvalues --    4.11155   4.12117   4.13607   4.14975   4.16614
 Alpha virt. eigenvalues --    4.17572   4.18045   4.19864   4.20607   4.21317
 Alpha virt. eigenvalues --    4.22665   4.23678   4.25325   4.25928   4.27165
 Alpha virt. eigenvalues --    4.28054   4.29041   4.29459   4.30401   4.31949
 Alpha virt. eigenvalues --    4.33477   4.34391   4.35644   4.37502   4.38197
 Alpha virt. eigenvalues --    4.40029   4.40521   4.41142   4.42614   4.43940
 Alpha virt. eigenvalues --    4.44362   4.45463   4.47909   4.49396   4.49988
 Alpha virt. eigenvalues --    4.51216   4.53127   4.53877   4.54821   4.55179
 Alpha virt. eigenvalues --    4.55845   4.57258   4.59288   4.60127   4.61846
 Alpha virt. eigenvalues --    4.62322   4.63586   4.66173   4.66396   4.67942
 Alpha virt. eigenvalues --    4.68852   4.69743   4.70366   4.70618   4.71626
 Alpha virt. eigenvalues --    4.73390   4.73896   4.75291   4.76017   4.77294
 Alpha virt. eigenvalues --    4.78745   4.79329   4.80777   4.81205   4.83030
 Alpha virt. eigenvalues --    4.84428   4.85448   4.86305   4.88369   4.89395
 Alpha virt. eigenvalues --    4.90569   4.90905   4.92139   4.93939   4.95278
 Alpha virt. eigenvalues --    4.96517   4.98620   4.99865   5.01091   5.01475
 Alpha virt. eigenvalues --    5.03064   5.03501   5.05256   5.06237   5.07851
 Alpha virt. eigenvalues --    5.09425   5.09811   5.11132   5.12622   5.15771
 Alpha virt. eigenvalues --    5.16125   5.18285   5.18880   5.20137   5.21336
 Alpha virt. eigenvalues --    5.23129   5.26032   5.28952   5.30317   5.31723
 Alpha virt. eigenvalues --    5.32717   5.35182   5.39395   5.41048   5.42018
 Alpha virt. eigenvalues --    5.42199   5.45076   5.46056   5.48358   5.51764
 Alpha virt. eigenvalues --    5.53668   5.56441   5.57689   5.62938   5.68125
 Alpha virt. eigenvalues --    5.70667   5.72851   5.74634   5.76947   5.78912
 Alpha virt. eigenvalues --    5.80825   5.84603   5.87591   5.91031   5.93658
 Alpha virt. eigenvalues --    5.94645   5.97152   6.06328   6.10318   6.13935
 Alpha virt. eigenvalues --    6.17952   6.27772   6.28223   6.28836   6.35218
 Alpha virt. eigenvalues --    6.38023   6.42085   6.44095   6.45361   6.48601
 Alpha virt. eigenvalues --    6.50418   6.51113   6.52008   6.53071   6.55488
 Alpha virt. eigenvalues --    6.59689   6.66757   6.67316   6.75208   6.76012
 Alpha virt. eigenvalues --    6.81172   6.85582   6.86954   6.91303   6.93460
 Alpha virt. eigenvalues --    6.95817   7.04062   7.14830   7.21275   7.21588
 Alpha virt. eigenvalues --    7.22487   7.35941   7.41816   7.57255   7.74384
 Alpha virt. eigenvalues --    7.94309   8.11259  15.74508  15.92511  17.08201
 Alpha virt. eigenvalues --   17.16479  17.38509  17.92539  18.17034  19.04749
 Alpha virt. eigenvalues --   19.65056  20.39827  20.94161  21.12803
          Condensed to atoms (all electrons):
               1          2          3          4          5          6
     1  C    8.516565   0.009630   0.012793  -0.374701  -0.565047  -0.271550
     2  C    0.009630   6.790732  -0.217861   0.019892  -0.184693  -0.194694
     3  C    0.012793  -0.217861   7.959465  -0.770937  -0.028639  -0.104574
     4  C   -0.374701   0.019892  -0.770937   8.755348  -0.900009  -0.291478
     5  C   -0.565047  -0.184693  -0.028639  -0.900009   8.788046  -1.222859
     6  C   -0.271550  -0.194694  -0.104574  -0.291478  -1.222859   7.672356
     7  C   -0.740353   0.111104   0.036282   0.094564  -0.577754  -0.316308
     8  O    0.151086  -0.032944   0.011083  -0.016489   0.114228  -0.143254
     9  O   -0.015509  -0.009295   0.006229  -0.026982  -0.005105  -0.109127
    10  C    0.178316   0.012755  -0.007934  -0.449974  -0.264761  -0.200282
    11  C   -0.024128  -0.012427   0.038486   0.006103  -0.000838   0.079597
    12  C   -0.003765   0.000990   0.016196  -0.016931  -0.052636   0.039198
    13  H    0.018698  -0.276371   0.084587   0.005868  -0.034699  -0.129219
    14  H   -0.189184   0.552535  -0.366648   0.005006  -0.015943  -0.035309
    15  H    0.024753  -0.295938   0.508301  -0.207033   0.055263  -0.014260
    16  H    0.005951   0.054035  -0.573262   0.670420  -0.416100   0.024131
    17  H   -0.016228   0.003322  -0.001692   0.002235  -0.046181   0.017158
    18  H    0.047828  -0.012337  -0.001865  -0.013129  -0.133304  -0.083491
    19  H   -0.000675   0.001587   0.001905   0.010934  -0.034416  -0.007898
    20  H   -0.005951   0.000208   0.003956  -0.016012   0.007155   0.015289
    21  H   -0.002011  -0.000996   0.005289  -0.026367   0.037053   0.011069
    22  H    0.001761   0.000400  -0.000646   0.002815   0.005065   0.011452
    23  H   -0.010796  -0.001130   0.001497  -0.007914  -0.063347   0.030833
    24  H    0.001844  -0.001331   0.003642  -0.002933  -0.012809  -0.009263
               7          8          9         10         11         12
     1  C   -0.740353   0.151086  -0.015509   0.178316  -0.024128  -0.003765
     2  C    0.111104  -0.032944  -0.009295   0.012755  -0.012427   0.000990
     3  C    0.036282   0.011083   0.006229  -0.007934   0.038486   0.016196
     4  C    0.094564  -0.016489  -0.026982  -0.449974   0.006103  -0.016931
     5  C   -0.577754   0.114228  -0.005105  -0.264761  -0.000838  -0.052636
     6  C   -0.316308  -0.143254  -0.109127  -0.200282   0.079597   0.039198
     7  C    7.253209  -0.283420   0.184615  -0.128302   0.019247  -0.034112
     8  O   -0.283420   9.608907  -0.236663   0.002221  -0.002288   0.006053
     9  O    0.184615  -0.236663   8.653949  -0.038626   0.015303   0.023386
    10  C   -0.128302   0.002221  -0.038626   7.372251  -0.507729  -0.077224
    11  C    0.019247  -0.002288   0.015303  -0.507729   6.616487   0.034916
    12  C   -0.034112   0.006053   0.023386  -0.077224   0.034916   5.889922
    13  H    0.277576  -0.061015  -0.001195  -0.002891  -0.000026  -0.001903
    14  H   -0.024949  -0.001942  -0.000114   0.008542   0.000639  -0.000166
    15  H   -0.006515   0.000308   0.000138   0.009187   0.000641   0.001238
    16  H    0.007287   0.000195  -0.001064   0.078787  -0.101936   0.009395
    17  H    0.041827  -0.067464   0.193652   0.018757  -0.000431  -0.003948
    18  H   -0.070444   0.007869  -0.118824   0.232214  -0.393511  -0.080682
    19  H    0.001773  -0.000100   0.000532  -0.046733   0.485453   0.029672
    20  H    0.001451  -0.000103   0.001860  -0.103907   0.466640   0.007670
    21  H    0.000881  -0.000242   0.002144  -0.099422   0.446329  -0.038683
    22  H    0.001222   0.000358  -0.002569  -0.092212  -0.033836   0.474786
    23  H   -0.022765  -0.003186  -0.021669  -0.020269   0.053934   0.325239
    24  H   -0.000673   0.000596  -0.002618  -0.021071  -0.037042   0.423301
              13         14         15         16         17         18
     1  C    0.018698  -0.189184   0.024753   0.005951  -0.016228   0.047828
     2  C   -0.276371   0.552535  -0.295938   0.054035   0.003322  -0.012337
     3  C    0.084587  -0.366648   0.508301  -0.573262  -0.001692  -0.001865
     4  C    0.005868   0.005006  -0.207033   0.670420   0.002235  -0.013129
     5  C   -0.034699  -0.015943   0.055263  -0.416100  -0.046181  -0.133304
     6  C   -0.129219  -0.035309  -0.014260   0.024131   0.017158  -0.083491
     7  C    0.277576  -0.024949  -0.006515   0.007287   0.041827  -0.070444
     8  O   -0.061015  -0.001942   0.000308   0.000195  -0.067464   0.007869
     9  O   -0.001195  -0.000114   0.000138  -0.001064   0.193652  -0.118824
    10  C   -0.002891   0.008542   0.009187   0.078787   0.018757   0.232214
    11  C   -0.000026   0.000639   0.000641  -0.101936  -0.000431  -0.393511
    12  C   -0.001903  -0.000166   0.001238   0.009395  -0.003948  -0.080682
    13  H    0.999260  -0.124565  -0.003549   0.008258   0.000099   0.000339
    14  H   -0.124565   1.010062  -0.033646  -0.018503   0.000105  -0.000114
    15  H   -0.003549  -0.033646   0.731313  -0.029885  -0.000101  -0.000136
    16  H    0.008258  -0.018503  -0.029885   1.289420  -0.000239   0.014333
    17  H    0.000099   0.000105  -0.000101  -0.000239   0.606107  -0.004142
    18  H    0.000339  -0.000114  -0.000136   0.014333  -0.004142   1.521088
    19  H    0.000041   0.000087   0.000029   0.009827   0.000178  -0.166348
    20  H   -0.000315   0.000074   0.000458  -0.017790  -0.000098   0.008981
    21  H   -0.000048   0.000173  -0.000991  -0.056285   0.000106   0.040978
    22  H   -0.000183   0.000049   0.000122   0.003995   0.000745   0.044963
    23  H   -0.000006  -0.000252   0.000086  -0.005513   0.001556  -0.077249
    24  H   -0.000181  -0.000078   0.000517   0.002134  -0.000331  -0.003486
              19         20         21         22         23         24
     1  C   -0.000675  -0.005951  -0.002011   0.001761  -0.010796   0.001844
     2  C    0.001587   0.000208  -0.000996   0.000400  -0.001130  -0.001331
     3  C    0.001905   0.003956   0.005289  -0.000646   0.001497   0.003642
     4  C    0.010934  -0.016012  -0.026367   0.002815  -0.007914  -0.002933
     5  C   -0.034416   0.007155   0.037053   0.005065  -0.063347  -0.012809
     6  C   -0.007898   0.015289   0.011069   0.011452   0.030833  -0.009263
     7  C    0.001773   0.001451   0.000881   0.001222  -0.022765  -0.000673
     8  O   -0.000100  -0.000103  -0.000242   0.000358  -0.003186   0.000596
     9  O    0.000532   0.001860   0.002144  -0.002569  -0.021669  -0.002618
    10  C   -0.046733  -0.103907  -0.099422  -0.092212  -0.020269  -0.021071
    11  C    0.485453   0.466640   0.446329  -0.033836   0.053934  -0.037042
    12  C    0.029672   0.007670  -0.038683   0.474786   0.325239   0.423301
    13  H    0.000041  -0.000315  -0.000048  -0.000183  -0.000006  -0.000181
    14  H    0.000087   0.000074   0.000173   0.000049  -0.000252  -0.000078
    15  H    0.000029   0.000458  -0.000991   0.000122   0.000086   0.000517
    16  H    0.009827  -0.017790  -0.056285   0.003995  -0.005513   0.002134
    17  H    0.000178  -0.000098   0.000106   0.000745   0.001556  -0.000331
    18  H   -0.166348   0.008981   0.040978   0.044963  -0.077249  -0.003486
    19  H    0.668105  -0.041362  -0.086964  -0.016434   0.013617   0.003846
    20  H   -0.041362   0.444770   0.023919   0.004547  -0.000401  -0.002408
    21  H   -0.086964   0.023919   0.530945  -0.000894  -0.000892  -0.014009
    22  H   -0.016434   0.004547  -0.000894   0.485502  -0.078191   0.022588
    23  H    0.013617  -0.000401  -0.000892  -0.078191   0.528480  -0.025337
    24  H    0.003846  -0.002408  -0.014009   0.022588  -0.025337   0.405650
 Mulliken charges:
               1
     1  C   -0.749329
     2  C   -0.317171
     3  C   -0.615653
     4  C   -0.452298
     5  C    1.552329
     6  C    1.232481
     7  C    0.174556
     8  O   -1.053797
     9  O   -0.492449
    10  C    0.148309
    11  C   -1.149583
    12  C   -0.971912
    13  H    0.241442
    14  H    0.234140
    15  H    0.259699
    16  H    0.042408
    17  H    0.255010
    18  H    0.240469
    19  H    0.173340
    20  H    0.201370
    21  H    0.228917
    22  H    0.164597
    23  H    0.383676
    24  H    0.269451
 Sum of Mulliken charges =   0.00000
 Mulliken charges with hydrogens summed into heavy atoms:
               1
     1  C   -0.507886
     2  C   -0.083031
     3  C   -0.355955
     4  C   -0.409890
     5  C    1.552329
     6  C    1.232481
     7  C    0.174556
     8  O   -1.053797
     9  O   -0.237439
    10  C    0.388778
    11  C   -0.545956
    12  C   -0.154188
 Electronic spatial extent (au):  <R**2>=           2008.2862
 Charge=              0.0000 electrons
 Dipole moment (field-independent basis, Debye):
    X=              1.8888    Y=              1.4991    Z=              0.0670  Tot=              2.4123
 Quadrupole moment (field-independent basis, Debye-Ang):
   XX=            -74.8509   YY=            -63.9712   ZZ=            -73.6389
   XY=             -5.4407   XZ=             -0.5901   YZ=              0.6897
 Traceless Quadrupole moment (field-independent basis, Debye-Ang):
   XX=             -4.0305   YY=              6.8491   ZZ=             -2.8186
   XY=             -5.4407   XZ=             -0.5901   YZ=              0.6897
 Octapole moment (field-independent basis, Debye-Ang**2):
  XXX=              5.7189  YYY=            -24.2640  ZZZ=             -2.8995  XYY=             -2.4146
  XXY=             15.8034  XXZ=              0.5132  XZZ=             -1.2488  YZZ=            -10.4303
  YYZ=              0.9811  XYZ=              0.6983
 Hexadecapole moment (field-independent basis, Debye-Ang**3):
 XXXX=          -1369.5085 YYYY=           -933.1010 ZZZZ=           -218.1501 XXXY=            -61.6559
 XXXZ=             -5.2852 YYYX=             10.7574 YYYZ=             16.8264 ZZZX=             -0.7607
 ZZZY=              2.4321 XXYY=           -427.0991 XXZZ=           -269.9643 YYZZ=           -234.4514
 XXYZ=              5.5046 YYXZ=             -0.5157 ZZXY=             10.4864
 N-N= 7.051807770135D+02 E-N=-2.665717807650D+03  KE= 5.365420622958D+02
 ******************************Gaussian NBO Version 3.1******************************
             N A T U R A L   A T O M I C   O R B I T A L   A N D
          N A T U R A L   B O N D   O R B I T A L   A N A L Y S I S
 ******************************Gaussian NBO Version 3.1******************************
       /RESON  / : Allow strongly delocalized NBO set

 Analyzing the SCF density

 Job title: o-iPr                                                           

 Storage needed:   2060184 in NPA,   2745442 in NBO (********** available)
 GSVD:  LWork=       35792 too small for GESVD, short by     1258680 words or     1258680 for optimal perf.


 NATURAL POPULATIONS:  Natural atomic orbital occupancies 
                                                          
   NAO  Atom  No  lang   Type(AO)    Occupancy      Energy
 ----------------------------------------------------------
     1    C    1  S      Cor( 1S)     1.99910     -10.37948
     2    C    1  S      Val( 2S)     0.93976      -0.17358
     3    C    1  S      Ryd( 3S)     0.00156       1.89849
     4    C    1  S      Ryd( 5S)     0.00011       2.77182
     5    C    1  S      Ryd( 4S)     0.00002       1.93071
     6    C    1  px     Val( 2p)     1.15812      -0.06726
     7    C    1  px     Ryd( 4p)     0.00494       1.82130
     8    C    1  px     Ryd( 3p)     0.00006       1.69951
     9    C    1  px     Ryd( 5p)     0.00006       1.98374
    10    C    1  py     Val( 2p)     1.06411      -0.05592
    11    C    1  py     Ryd( 4p)     0.00370       1.96067
    12    C    1  py     Ryd( 3p)     0.00009       1.46075
    13    C    1  py     Ryd( 5p)     0.00005       2.10521
    14    C    1  pz     Val( 2p)     0.93006      -0.11402
    15    C    1  pz     Ryd( 4p)     0.00085       1.05593
    16    C    1  pz     Ryd( 3p)     0.00002       1.04036
    17    C    1  pz     Ryd( 5p)     0.00004       1.30464
    18    C    1  dxy    Ryd( 3d)     0.00147       3.12456
    19    C    1  dxy    Ryd( 5d)     0.00013       3.64344
    20    C    1  dxy    Ryd( 4d)     0.00008       3.33673
    21    C    1  dxz    Ryd( 3d)     0.00020       1.46983
    22    C    1  dxz    Ryd( 5d)     0.00008       2.94017
    23    C    1  dxz    Ryd( 4d)     0.00004       2.02106
    24    C    1  dyz    Ryd( 3d)     0.00047       1.50556
    25    C    1  dyz    Ryd( 5d)     0.00005       2.86972
    26    C    1  dyz    Ryd( 4d)     0.00002       2.38359
    27    C    1  dx2y2  Ryd( 3d)     0.00212       2.96158
    28    C    1  dx2y2  Ryd( 4d)     0.00022       3.72571
    29    C    1  dx2y2  Ryd( 5d)     0.00008       4.03202
    30    C    1  dz2    Ryd( 3d)     0.00097       1.73928
    31    C    1  dz2    Ryd( 4d)     0.00010       4.11027
    32    C    1  dz2    Ryd( 5d)     0.00007       4.25079
    33    C    1  f(0)   Ryd( 4f)     0.00012       1.50959
    34    C    1  f(0)   Ryd( 5f)     0.00009       3.45332
    35    C    1  f(C1)  Ryd( 4f)     0.00051       1.79760
    36    C    1  f(C1)  Ryd( 5f)     0.00011       3.62642
    37    C    1  f(S1)  Ryd( 4f)     0.00039       2.02074
    38    C    1  f(S1)  Ryd( 5f)     0.00022       3.71468
    39    C    1  f(C2)  Ryd( 4f)     0.00018       1.63280
    40    C    1  f(C2)  Ryd( 5f)     0.00004       3.51533
    41    C    1  f(S2)  Ryd( 4f)     0.00021       1.47536
    42    C    1  f(S2)  Ryd( 5f)     0.00003       3.50565
    43    C    1  f(C3)  Ryd( 4f)     0.00105       2.17102
    44    C    1  f(C3)  Ryd( 5f)     0.00016       4.27010
    45    C    1  f(S3)  Ryd( 4f)     0.00048       2.70452
    46    C    1  f(S3)  Ryd( 5f)     0.00014       4.15545
 
    47    C    2  S      Cor( 1S)     1.99909     -10.37044
    48    C    2  S      Val( 2S)     0.94442      -0.18264
    49    C    2  S      Ryd( 4S)     0.00139       1.91262
    50    C    2  S      Ryd( 5S)     0.00004       2.90124
    51    C    2  S      Ryd( 3S)     0.00002       1.87794
    52    C    2  px     Val( 2p)     1.14054      -0.07728
    53    C    2  px     Ryd( 5p)     0.00430       1.74378
    54    C    2  px     Ryd( 4p)     0.00003       1.56629
    55    C    2  px     Ryd( 3p)     0.00003       1.48072
    56    C    2  py     Val( 2p)     1.10978      -0.07139
    57    C    2  py     Ryd( 5p)     0.00436       1.72243
    58    C    2  py     Ryd( 3p)     0.00005       1.35117
    59    C    2  py     Ryd( 4p)     0.00002       1.40927
    60    C    2  pz     Val( 2p)     1.00757      -0.12054
    61    C    2  pz     Ryd( 4p)     0.00091       1.04953
    62    C    2  pz     Ryd( 5p)     0.00000       1.15062
    63    C    2  pz     Ryd( 3p)     0.00002       1.04739
    64    C    2  dxy    Ryd( 3d)     0.00186       2.39296
    65    C    2  dxy    Ryd( 5d)     0.00021       3.49860
    66    C    2  dxy    Ryd( 4d)     0.00006       2.95024
    67    C    2  dxz    Ryd( 3d)     0.00029       1.51595
    68    C    2  dxz    Ryd( 5d)     0.00005       2.81493
    69    C    2  dxz    Ryd( 4d)     0.00002       1.83417
    70    C    2  dyz    Ryd( 3d)     0.00029       1.51778
    71    C    2  dyz    Ryd( 5d)     0.00002       2.83939
    72    C    2  dyz    Ryd( 4d)     0.00002       1.74108
    73    C    2  dx2y2  Ryd( 4d)     0.00212       3.18637
    74    C    2  dx2y2  Ryd( 5d)     0.00020       3.62296
    75    C    2  dx2y2  Ryd( 3d)     0.00004       2.22078
    76    C    2  dz2    Ryd( 3d)     0.00105       1.77546
    77    C    2  dz2    Ryd( 5d)     0.00008       4.08962
    78    C    2  dz2    Ryd( 4d)     0.00009       3.24375
    79    C    2  f(0)   Ryd( 5f)     0.00011       3.51313
    80    C    2  f(0)   Ryd( 4f)     0.00001       2.19419
    81    C    2  f(C1)  Ryd( 5f)     0.00022       3.73504
    82    C    2  f(C1)  Ryd( 4f)     0.00003       2.97984
    83    C    2  f(S1)  Ryd( 5f)     0.00020       3.75854
    84    C    2  f(S1)  Ryd( 4f)     0.00002       2.64037
    85    C    2  f(C2)  Ryd( 5f)     0.00001       3.59837
    86    C    2  f(C2)  Ryd( 4f)     0.00001       2.33715
    87    C    2  f(S2)  Ryd( 5f)     0.00001       3.70215
    88    C    2  f(S2)  Ryd( 4f)     0.00001       2.33984
    89    C    2  f(C3)  Ryd( 5f)     0.00009       4.35517
    90    C    2  f(C3)  Ryd( 4f)     0.00011       4.08443
    91    C    2  f(S3)  Ryd( 4f)     0.00013       4.24821
    92    C    2  f(S3)  Ryd( 5f)     0.00006       5.31916
 
    93    C    3  S      Cor( 1S)     1.99908     -10.37667
    94    C    3  S      Val( 2S)     0.94541      -0.18702
    95    C    3  S      Ryd( 4S)     0.00130       2.00814
    96    C    3  S      Ryd( 5S)     0.00004       2.86487
    97    C    3  S      Ryd( 3S)     0.00002       1.72461
    98    C    3  px     Val( 2p)     1.06839      -0.06256
    99    C    3  px     Ryd( 5p)     0.00385       1.75629
   100    C    3  px     Ryd( 3p)     0.00005       1.02003
   101    C    3  px     Ryd( 4p)     0.00002       1.47883
   102    C    3  py     Val( 2p)     1.17686      -0.08337
   103    C    3  py     Ryd( 4p)     0.00559       1.71379
   104    C    3  py     Ryd( 3p)     0.00003       1.43421
   105    C    3  py     Ryd( 5p)     0.00004       1.90341
   106    C    3  pz     Val( 2p)     0.94634      -0.11793
   107    C    3  pz     Ryd( 4p)     0.00073       1.05564
   108    C    3  pz     Ryd( 3p)     0.00002       0.91684
   109    C    3  pz     Ryd( 5p)     0.00001       1.31407
   110    C    3  dxy    Ryd( 4d)     0.00203       3.44214
   111    C    3  dxy    Ryd( 5d)     0.00024       3.76243
   112    C    3  dxy    Ryd( 3d)     0.00004       1.93522
   113    C    3  dxz    Ryd( 3d)     0.00058       1.55865
   114    C    3  dxz    Ryd( 5d)     0.00001       2.88965
   115    C    3  dxz    Ryd( 4d)     0.00001       1.82253
   116    C    3  dyz    Ryd( 4d)     0.00024       1.52202
   117    C    3  dyz    Ryd( 5d)     0.00006       2.99819
   118    C    3  dyz    Ryd( 3d)     0.00003       1.50369
   119    C    3  dx2y2  Ryd( 3d)     0.00195       2.36384
   120    C    3  dx2y2  Ryd( 5d)     0.00020       3.61155
   121    C    3  dx2y2  Ryd( 4d)     0.00006       2.93043
   122    C    3  dz2    Ryd( 3d)     0.00103       1.82566
   123    C    3  dz2    Ryd( 5d)     0.00007       4.07831
   124    C    3  dz2    Ryd( 4d)     0.00010       3.23158
   125    C    3  f(0)   Ryd( 5f)     0.00010       3.50896
   126    C    3  f(0)   Ryd( 4f)     0.00002       2.21097
   127    C    3  f(C1)  Ryd( 5f)     0.00025       3.79039
   128    C    3  f(C1)  Ryd( 4f)     0.00001       2.95565
   129    C    3  f(S1)  Ryd( 5f)     0.00013       3.70870
   130    C    3  f(S1)  Ryd( 4f)     0.00003       2.74828
   131    C    3  f(C2)  Ryd( 5f)     0.00001       3.69118
   132    C    3  f(C2)  Ryd( 4f)     0.00002       2.30703
   133    C    3  f(S2)  Ryd( 5f)     0.00002       3.59275
   134    C    3  f(S2)  Ryd( 4f)     0.00001       2.39774
   135    C    3  f(C3)  Ryd( 5f)     0.00008       4.33894
   136    C    3  f(C3)  Ryd( 4f)     0.00012       4.10253
   137    C    3  f(S3)  Ryd( 4f)     0.00013       4.29859
   138    C    3  f(S3)  Ryd( 5f)     0.00005       5.40884
 
   139    C    4  S      Cor( 1S)     1.99905     -10.36927
   140    C    4  S      Val( 2S)     0.93310      -0.17034
   141    C    4  S      Ryd( 4S)     0.00163       1.96969
   142    C    4  S      Ryd( 5S)     0.00012       2.84869
   143    C    4  S      Ryd( 3S)     0.00002       1.85373
   144    C    4  px     Val( 2p)     1.16199      -0.08016
   145    C    4  px     Ryd( 4p)     0.00477       1.96138
   146    C    4  px     Ryd( 5p)     0.00013       2.49599
   147    C    4  px     Ryd( 3p)     0.00004       1.15102
   148    C    4  py     Val( 2p)     1.10099      -0.06891
   149    C    4  py     Ryd( 4p)     0.00341       1.89431
   150    C    4  py     Ryd( 5p)     0.00007       2.24182
   151    C    4  py     Ryd( 3p)     0.00002       1.13773
   152    C    4  pz     Val( 2p)     1.01241      -0.12024
   153    C    4  pz     Ryd( 4p)     0.00098       1.03418
   154    C    4  pz     Ryd( 5p)     0.00005       1.62101
   155    C    4  pz     Ryd( 3p)     0.00004       0.85135
   156    C    4  dxy    Ryd( 3d)     0.00165       2.86245
   157    C    4  dxy    Ryd( 4d)     0.00020       3.73229
   158    C    4  dxy    Ryd( 5d)     0.00008       4.09214
   159    C    4  dxz    Ryd( 3d)     0.00034       1.50826
   160    C    4  dxz    Ryd( 5d)     0.00008       2.99659
   161    C    4  dxz    Ryd( 4d)     0.00002       2.09666
   162    C    4  dyz    Ryd( 3d)     0.00024       1.45881
   163    C    4  dyz    Ryd( 5d)     0.00008       3.03148
   164    C    4  dyz    Ryd( 4d)     0.00002       2.11058
   165    C    4  dx2y2  Ryd( 4d)     0.00158       3.15074
   166    C    4  dx2y2  Ryd( 5d)     0.00016       3.83596
   167    C    4  dx2y2  Ryd( 3d)     0.00006       3.11644
   168    C    4  dz2    Ryd( 3d)     0.00098       1.63352
   169    C    4  dz2    Ryd( 4d)     0.00009       4.14793
   170    C    4  dz2    Ryd( 5d)     0.00006       4.54518
   171    C    4  f(0)   Ryd( 4f)     0.00024       1.67463
   172    C    4  f(0)   Ryd( 5f)     0.00007       3.36067
   173    C    4  f(C1)  Ryd( 4f)     0.00049       2.03122
   174    C    4  f(C1)  Ryd( 5f)     0.00010       3.56111
   175    C    4  f(S1)  Ryd( 4f)     0.00053       2.07529
   176    C    4  f(S1)  Ryd( 5f)     0.00013       3.56779
   177    C    4  f(C2)  Ryd( 4f)     0.00016       1.63758
   178    C    4  f(C2)  Ryd( 5f)     0.00005       3.39444
   179    C    4  f(S2)  Ryd( 4f)     0.00017       1.82249
   180    C    4  f(S2)  Ryd( 5f)     0.00008       3.40940
   181    C    4  f(C3)  Ryd( 4f)     0.00075       2.28541
   182    C    4  f(C3)  Ryd( 5f)     0.00021       4.17127
   183    C    4  f(S3)  Ryd( 4f)     0.00051       2.87145
   184    C    4  f(S3)  Ryd( 5f)     0.00012       3.97194
 
   185    C    5  S      Cor( 1S)     1.99899     -10.39399
   186    C    5  S      Val( 2S)     0.87396      -0.13414
   187    C    5  S      Ryd( 3S)     0.00120       1.79297
   188    C    5  S      Ryd( 4S)     0.00007       2.87618
   189    C    5  S      Ryd( 5S)     0.00002       3.00221
   190    C    5  px     Val( 2p)     1.03841      -0.04567
   191    C    5  px     Ryd( 4p)     0.00516       2.19242
   192    C    5  px     Ryd( 5p)     0.00009       3.46061
   193    C    5  px     Ryd( 3p)     0.00002       0.88415
   194    C    5  py     Val( 2p)     1.06193      -0.05744
   195    C    5  py     Ryd( 4p)     0.00435       2.03418
   196    C    5  py     Ryd( 5p)     0.00005       3.55046
   197    C    5  py     Ryd( 3p)     0.00003       0.95044
   198    C    5  pz     Val( 2p)     0.93488      -0.10845
   199    C    5  pz     Ryd( 4p)     0.00303       0.95764
   200    C    5  pz     Ryd( 5p)     0.00008       2.38628
   201    C    5  pz     Ryd( 3p)     0.00003       0.76029
   202    C    5  dxy    Ryd( 3d)     0.00087       3.03341
   203    C    5  dxy    Ryd( 4d)     0.00030       3.49242
   204    C    5  dxy    Ryd( 5d)     0.00003       5.13600
   205    C    5  dxz    Ryd( 3d)     0.00029       1.87514
   206    C    5  dxz    Ryd( 4d)     0.00019       2.61724
   207    C    5  dxz    Ryd( 5d)     0.00007       3.02953
   208    C    5  dyz    Ryd( 3d)     0.00042       1.84477
   209    C    5  dyz    Ryd( 4d)     0.00017       2.61349
   210    C    5  dyz    Ryd( 5d)     0.00002       2.93136
   211    C    5  dx2y2  Ryd( 3d)     0.00128       3.70186
   212    C    5  dx2y2  Ryd( 4d)     0.00032       3.74503
   213    C    5  dx2y2  Ryd( 5d)     0.00008       5.58449
   214    C    5  dz2    Ryd( 3d)     0.00063       2.05559
   215    C    5  dz2    Ryd( 4d)     0.00026       3.14991
   216    C    5  dz2    Ryd( 5d)     0.00004       4.88051
   217    C    5  f(0)   Ryd( 4f)     0.00023       1.50408
   218    C    5  f(0)   Ryd( 5f)     0.00015       3.71040
   219    C    5  f(C1)  Ryd( 4f)     0.00052       2.16226
   220    C    5  f(C1)  Ryd( 5f)     0.00020       3.82089
   221    C    5  f(S1)  Ryd( 4f)     0.00049       2.00840
   222    C    5  f(S1)  Ryd( 5f)     0.00021       3.78119
   223    C    5  f(C2)  Ryd( 4f)     0.00074       1.43873
   224    C    5  f(C2)  Ryd( 5f)     0.00001       3.84793
   225    C    5  f(S2)  Ryd( 4f)     0.00038       1.31728
   226    C    5  f(S2)  Ryd( 5f)     0.00002       3.79111
   227    C    5  f(C3)  Ryd( 4f)     0.00221       2.15092
   228    C    5  f(C3)  Ryd( 5f)     0.00013       4.67955
   229    C    5  f(S3)  Ryd( 4f)     0.00077       3.70383
   230    C    5  f(S3)  Ryd( 5f)     0.00009       4.48647
 
   231    C    6  S      Cor( 1S)     1.99876     -10.37279
   232    C    6  S      Val( 2S)     0.88127      -0.11021
   233    C    6  S      Ryd( 3S)     0.00097       2.10203
   234    C    6  S      Ryd( 4S)     0.00009       2.50734
   235    C    6  S      Ryd( 5S)     0.00002       2.76275
   236    C    6  px     Val( 2p)     1.14390      -0.10324
   237    C    6  px     Ryd( 4p)     0.00462       2.31370
   238    C    6  px     Ryd( 5p)     0.00007       2.87558
   239    C    6  px     Ryd( 3p)     0.00003       0.73301
   240    C    6  py     Val( 2p)     1.10076      -0.10674
   241    C    6  py     Ryd( 4p)     0.00574       2.60702
   242    C    6  py     Ryd( 5p)     0.00006       3.08212
   243    C    6  py     Ryd( 3p)     0.00005       1.05441
   244    C    6  pz     Val( 2p)     1.08482      -0.13282
   245    C    6  pz     Ryd( 4p)     0.00138       1.03955
   246    C    6  pz     Ryd( 5p)     0.00012       2.11178
   247    C    6  pz     Ryd( 3p)     0.00001       0.62127
   248    C    6  dxy    Ryd( 3d)     0.00082       3.09697
   249    C    6  dxy    Ryd( 4d)     0.00031       3.96112
   250    C    6  dxy    Ryd( 5d)     0.00007       5.95099
   251    C    6  dxz    Ryd( 3d)     0.00043       1.34944
   252    C    6  dxz    Ryd( 5d)     0.00012       3.05214
   253    C    6  dxz    Ryd( 4d)     0.00004       2.81212
   254    C    6  dyz    Ryd( 3d)     0.00021       1.48713
   255    C    6  dyz    Ryd( 5d)     0.00013       3.13709
   256    C    6  dyz    Ryd( 4d)     0.00002       2.74309
   257    C    6  dx2y2  Ryd( 3d)     0.00194       2.97174
   258    C    6  dx2y2  Ryd( 4d)     0.00019       3.84806
   259    C    6  dx2y2  Ryd( 5d)     0.00003       5.89693
   260    C    6  dz2    Ryd( 3d)     0.00085       1.38336
   261    C    6  dz2    Ryd( 4d)     0.00017       4.08549
   262    C    6  dz2    Ryd( 5d)     0.00004       4.61590
   263    C    6  f(0)   Ryd( 4f)     0.00040       1.62084
   264    C    6  f(0)   Ryd( 5f)     0.00027       3.59420
   265    C    6  f(C1)  Ryd( 4f)     0.00070       2.25707
   266    C    6  f(C1)  Ryd( 5f)     0.00030       3.84039
   267    C    6  f(S1)  Ryd( 4f)     0.00040       2.11796
   268    C    6  f(S1)  Ryd( 5f)     0.00035       3.76548
   269    C    6  f(C2)  Ryd( 4f)     0.00068       1.46837
   270    C    6  f(C2)  Ryd( 5f)     0.00003       3.60297
   271    C    6  f(S2)  Ryd( 4f)     0.00051       1.54332
   272    C    6  f(S2)  Ryd( 5f)     0.00003       3.63773
   273    C    6  f(C3)  Ryd( 4f)     0.00200       2.81794
   274    C    6  f(C3)  Ryd( 5f)     0.00021       4.62231
   275    C    6  f(S3)  Ryd( 4f)     0.00150       3.57739
   276    C    6  f(S3)  Ryd( 5f)     0.00014       4.60109
 
   277    C    7  S      Cor( 1S)     1.99911     -10.53177
   278    C    7  S      Val( 2S)     0.78098      -0.09896
   279    C    7  S      Ryd( 3S)     0.00414       2.00235
   280    C    7  S      Ryd( 5S)     0.00013       2.19066
   281    C    7  S      Ryd( 4S)     0.00003       2.14493
   282    C    7  px     Val( 2p)     0.74215      -0.02158
   283    C    7  px     Ryd( 4p)     0.01307       1.64153
   284    C    7  px     Ryd( 3p)     0.00012       1.25644
   285    C    7  px     Ryd( 5p)     0.00003       1.79235
   286    C    7  py     Val( 2p)     0.89533      -0.03915
   287    C    7  py     Ryd( 5p)     0.00488       1.69507
   288    C    7  py     Ryd( 3p)     0.00027       1.47873
   289    C    7  py     Ryd( 4p)     0.00002       1.51388
   290    C    7  pz     Val( 2p)     0.75554      -0.12035
   291    C    7  pz     Ryd( 4p)     0.00052       1.16706
   292    C    7  pz     Ryd( 3p)     0.00013       0.77784
   293    C    7  pz     Ryd( 5p)     0.00002       1.23552
   294    C    7  dxy    Ryd( 4d)     0.00114       3.63208
   295    C    7  dxy    Ryd( 3d)     0.00032       2.10520
   296    C    7  dxy    Ryd( 5d)     0.00007       4.02688
   297    C    7  dxz    Ryd( 4d)     0.00127       2.77504
   298    C    7  dxz    Ryd( 3d)     0.00019       1.60208
   299    C    7  dxz    Ryd( 5d)     0.00007       2.90729
   300    C    7  dyz    Ryd( 4d)     0.00088       2.62485
   301    C    7  dyz    Ryd( 3d)     0.00005       1.38029
   302    C    7  dyz    Ryd( 5d)     0.00005       2.92695
   303    C    7  dx2y2  Ryd( 4d)     0.00148       3.51351
   304    C    7  dx2y2  Ryd( 3d)     0.00022       1.93040
   305    C    7  dx2y2  Ryd( 5d)     0.00008       4.22137
   306    C    7  dz2    Ryd( 4d)     0.00029       3.49299
   307    C    7  dz2    Ryd( 3d)     0.00045       2.37604
   308    C    7  dz2    Ryd( 5d)     0.00011       3.95104
   309    C    7  f(0)   Ryd( 4f)     0.00007       1.51419
   310    C    7  f(0)   Ryd( 5f)     0.00011       3.77745
   311    C    7  f(C1)  Ryd( 4f)     0.00033       1.73090
   312    C    7  f(C1)  Ryd( 5f)     0.00008       3.81863
   313    C    7  f(S1)  Ryd( 4f)     0.00038       1.72530
   314    C    7  f(S1)  Ryd( 5f)     0.00016       3.89832
   315    C    7  f(C2)  Ryd( 4f)     0.00084       1.43368
   316    C    7  f(C2)  Ryd( 5f)     0.00001       3.69892
   317    C    7  f(S2)  Ryd( 4f)     0.00060       1.59921
   318    C    7  f(S2)  Ryd( 5f)     0.00003       3.80390
   319    C    7  f(C3)  Ryd( 4f)     0.00130       2.39596
   320    C    7  f(C3)  Ryd( 5f)     0.00005       4.86448
   321    C    7  f(S3)  Ryd( 4f)     0.00126       2.93327
   322    C    7  f(S3)  Ryd( 5f)     0.00008       4.86866
 
   323    O    8  S      Cor( 1S)     1.99979     -19.31591
   324    O    8  S      Val( 2S)     1.70682      -0.99176
   325    O    8  S      Ryd( 4S)     0.00044       3.17622
   326    O    8  S      Ryd( 3S)     0.00021       1.45491
   327    O    8  S      Ryd( 5S)     0.00003       9.79421
   328    O    8  px     Val( 2p)     1.59751      -0.32752
   329    O    8  px     Ryd( 4p)     0.00110       1.82621
   330    O    8  px     Ryd( 3p)     0.00010       1.27948
   331    O    8  px     Ryd( 5p)     0.00007       4.76200
   332    O    8  py     Val( 2p)     1.82140      -0.33172
   333    O    8  py     Ryd( 4p)     0.00156       1.47894
   334    O    8  py     Ryd( 3p)     0.00012       1.28501
   335    O    8  py     Ryd( 5p)     0.00003       4.35731
   336    O    8  pz     Val( 2p)     1.46504      -0.28227
   337    O    8  pz     Ryd( 4p)     0.00077       1.18553
   338    O    8  pz     Ryd( 3p)     0.00001       0.91297
   339    O    8  pz     Ryd( 5p)     0.00001       3.83480
   340    O    8  dxy    Ryd( 3d)     0.00663       2.10915
   341    O    8  dxy    Ryd( 4d)     0.00013       3.37255
   342    O    8  dxy    Ryd( 5d)     0.00004       6.20021
   343    O    8  dxz    Ryd( 3d)     0.00621       1.61163
   344    O    8  dxz    Ryd( 4d)     0.00005       2.19301
   345    O    8  dxz    Ryd( 5d)     0.00002       6.03750
   346    O    8  dyz    Ryd( 3d)     0.00107       1.54744
   347    O    8  dyz    Ryd( 4d)     0.00002       2.01898
   348    O    8  dyz    Ryd( 5d)     0.00001       6.17802
   349    O    8  dx2y2  Ryd( 3d)     0.00689       2.00918
   350    O    8  dx2y2  Ryd( 4d)     0.00012       3.42186
   351    O    8  dx2y2  Ryd( 5d)     0.00002       6.19626
   352    O    8  dz2    Ryd( 3d)     0.00289       1.75396
   353    O    8  dz2    Ryd( 4d)     0.00009       3.10199
   354    O    8  dz2    Ryd( 5d)     0.00001       6.25381
   355    O    8  f(0)   Ryd( 4f)     0.00012       3.29277
   356    O    8  f(0)   Ryd( 5f)     0.00000       5.48705
   357    O    8  f(C1)  Ryd( 4f)     0.00015       3.98732
   358    O    8  f(C1)  Ryd( 5f)     0.00000       5.86771
   359    O    8  f(S1)  Ryd( 4f)     0.00006       3.41338
   360    O    8  f(S1)  Ryd( 5f)     0.00001       5.61873
   361    O    8  f(C2)  Ryd( 4f)     0.00017       3.32805
   362    O    8  f(C2)  Ryd( 5f)     0.00001       5.73237
   363    O    8  f(S2)  Ryd( 4f)     0.00020       3.29603
   364    O    8  f(S2)  Ryd( 5f)     0.00001       5.72144
   365    O    8  f(C3)  Ryd( 4f)     0.00033       3.79348
   366    O    8  f(C3)  Ryd( 5f)     0.00003       5.94893
   367    O    8  f(S3)  Ryd( 4f)     0.00037       4.26834
   368    O    8  f(S3)  Ryd( 5f)     0.00001       6.09497
 
   369    O    9  S      Cor( 1S)     1.99977     -19.44863
   370    O    9  S      Val( 2S)     1.67477      -1.02729
   371    O    9  S      Ryd( 4S)     0.00029       2.09939
   372    O    9  S      Ryd( 3S)     0.00008       1.60684
   373    O    9  S      Ryd( 5S)     0.00003      11.04659
   374    O    9  px     Val( 2p)     1.74562      -0.40287
   375    O    9  px     Ryd( 4p)     0.00116       1.34305
   376    O    9  px     Ryd( 3p)     0.00009       1.01358
   377    O    9  px     Ryd( 5p)     0.00007       4.98592
   378    O    9  py     Val( 2p)     1.42103      -0.34874
   379    O    9  py     Ryd( 4p)     0.00059       1.29095
   380    O    9  py     Ryd( 3p)     0.00012       0.87958
   381    O    9  py     Ryd( 5p)     0.00005       5.30396
   382    O    9  pz     Val( 2p)     1.84466      -0.40650
   383    O    9  pz     Ryd( 4p)     0.00106       0.95501
   384    O    9  pz     Ryd( 3p)     0.00002       0.86120
   385    O    9  pz     Ryd( 5p)     0.00001       4.06127
   386    O    9  dxy    Ryd( 3d)     0.00703       2.24186
   387    O    9  dxy    Ryd( 4d)     0.00009       2.68529
   388    O    9  dxy    Ryd( 5d)     0.00004       7.03997
   389    O    9  dxz    Ryd( 3d)     0.00473       1.38379
   390    O    9  dxz    Ryd( 4d)     0.00002       1.98217
   391    O    9  dxz    Ryd( 5d)     0.00003       6.72799
   392    O    9  dyz    Ryd( 3d)     0.00008       1.28981
   393    O    9  dyz    Ryd( 4d)     0.00006       1.97437
   394    O    9  dyz    Ryd( 5d)     0.00002       6.68495
   395    O    9  dx2y2  Ryd( 3d)     0.00251       1.76897
   396    O    9  dx2y2  Ryd( 4d)     0.00008       2.29418
   397    O    9  dx2y2  Ryd( 5d)     0.00005       6.97880
   398    O    9  dz2    Ryd( 3d)     0.00271       1.61925
   399    O    9  dz2    Ryd( 4d)     0.00018       2.25844
   400    O    9  dz2    Ryd( 5d)     0.00001       6.99664
   401    O    9  f(0)   Ryd( 4f)     0.00046       2.97239
   402    O    9  f(0)   Ryd( 5f)     0.00001       6.01912
   403    O    9  f(C1)  Ryd( 4f)     0.00012       3.77626
[...]
 316,0.00199097,0.00145978,0.00063823,0.00220458,-0.00006083,0.00146905
 ,0.00032742,-0.00046811,0.00022719,-0.00012820,0.00013817,-0.00006927,
 -0.00002286,0.00013067,-0.00008611,-0.00108899,-0.00009666,-0.00076781
 ,-0.00166402,-0.00158697,0.00034387,0.00000580,0.00017043,0.00000052,-
 0.00013695,0.00006556,-0.00022671,-0.00081852,0.00064563,0.00036109,0.
 00044840,-0.00015631,-0.00156983,0.27798752,-0.00083765,-0.00107864,0.
 00028789,-0.00327368,-0.00133188,0.00102336,-0.01696356,0.01153124,0.0
 0589972,0.10649574,-0.11458493,-0.03768448,0.02700687,-0.00913467,-0.0
 0936961,-0.00024573,-0.00609363,0.00031518,0.00141076,0.00129498,-0.00
 055902,0.00026924,-0.00104602,-0.00034528,-0.00033134,-0.00043612,0.00
 024184,0.00152830,0.00057070,-0.00020512,-0.00020327,-0.00071686,-0.00
 042783,-0.00020760,-0.00036570,-0.00010571,0.00008401,0.00005982,-0.00
 002245,-0.00081365,0.00039912,0.00034070,0.00049933,0.00082082,-0.0000
 7834,-0.11243767,0.11923985,-0.00071697,-0.00044044,-0.00084185,0.0028
 2453,0.00179410,0.00661216,0.00781297,-0.00415415,0.00128052,0.0751273
 9,-0.03790782,-0.06497845,0.00019721,0.00022893,0.00385869,0.00218039,
 -0.00029253,0.00612940,0.00027459,0.00019867,0.00042668,-0.00008706,0.
 00005392,-0.00023319,-0.00002738,-0.00002748,-0.00001060,-0.00042329,0
 .00015712,-0.00327192,0.00033765,0.00019927,0.00015358,0.00018025,0.00
 042175,0.00013844,-0.00029279,-0.00002174,-0.00077888,0.00029973,-0.00
 019778,0.00001545,-0.00168309,0.00019840,-0.00386791,-0.08573496,0.039
 88115,0.05552998,0.00017953,0.00008832,0.00003853,-0.00000548,-0.00026
 847,-0.00045602,-0.00015025,-0.00009080,0.00008219,-0.00015705,0.00011
 166,-0.00016192,-0.00008434,-0.00053202,0.00000118,0.00137391,-0.00180
 990,0.00446201,0.01236229,-0.02466827,-0.00298323,-0.00518506,0.003209
 69,-0.00190626,-0.07188123,0.15183364,0.03426996,-0.00070067,0.0000898
 3,-0.00006176,0.00006296,0.00024111,0.00011874,0.00005115,-0.00011769,
 -0.00011248,0.00003139,-0.00012532,0.00021852,-0.00000827,-0.00001877,
 0.00001215,0.00000465,0.00000412,0.00005166,0.00000361,0.00000565,0.00
 000142,0.06459683,0.00063439,-0.00052048,0.00032978,-0.00041527,-0.000
 09705,-0.00003347,-0.00009858,0.00010065,0.00009111,0.00002010,0.00017
 276,-0.00024190,-0.00000201,-0.00005167,-0.00039017,-0.00236770,0.0013
 5176,0.00332554,0.00414217,-0.04123118,0.00523262,0.00429176,0.0049390
 8,-0.00769853,0.12248544,-0.44320682,-0.04772664,-0.00012857,0.0002901
 7,0.00007044,0.00005354,0.00012794,0.00009857,0.00000894,0.00004217,-0
 .00001326,-0.00013763,-0.00009466,0.00006022,0.00001200,-0.00005122,-0
 .00007762,0.00000245,0.00001842,0.00002905,-0.00000496,0.00002095,0.00
 003004,-0.12890139,0.47837575,-0.00038269,0.00145786,0.00018409,0.0005
 7329,-0.00010242,-0.00026506,-0.00013368,-0.00014654,0.00005205,-0.000
 03868,0.00010945,-0.00002417,-0.00011424,-0.00056324,0.00003974,0.0050
 6253,0.00092881,-0.00132864,-0.01108195,0.04118444,0.00823123,-0.00142
 412,-0.00647740,-0.00262856,0.04139943,-0.08358088,-0.04693380,-0.0003
 8433,0.00026143,-0.00001163,0.00000296,-0.00000513,-0.00003539,0.00002
 163,-0.00008568,-0.00011317,0.00010190,0.00004018,0.00003914,-0.000020
 51,0.00010254,0.00001291,-0.00000501,-0.00000407,0.00001407,0.00000729
 ,-0.00001630,-0.00000010,-0.03362472,0.04700825,0.04250556,-0.00004098
 ,-0.00042479,0.00029886,-0.00038826,0.00028358,0.00005142,0.00105977,-
 0.00105911,0.00036559,-0.00469174,-0.00165059,0.00174028,0.00113092,-0
 .02683929,-0.01121223,0.00114876,0.00035008,-0.00014668,-0.00344192,-0
 .00216258,0.00190195,0.00056901,0.00045502,-0.00065449,-0.00276724,0.0
 0343616,-0.00133829,-0.04856025,0.02016728,0.01084270,-0.00673958,0.02
 733617,0.01077836,-0.00004196,0.00140616,0.00075433,-0.00000782,-0.000
 01294,-0.00003123,-0.00004313,0.00006383,-0.00003989,-0.00030225,-0.00
 025314,0.00011142,-0.00001777,-0.00009249,-0.00034751,-0.00019287,0.00
 053950,-0.00020904,0.06557332,-0.00024331,-0.00051260,0.00046798,-0.00
 022970,0.00046609,0.00003891,0.00080816,-0.00075826,-0.00004566,-0.003
 46134,-0.00028834,0.00068935,-0.00049606,-0.01820590,-0.00568373,0.001
 81670,0.00078573,0.00018736,-0.00060957,0.00023364,-0.00005571,-0.0000
 7867,0.00013442,-0.00010420,0.00523790,-0.00270412,0.00120300,0.015392
 86,-0.27515616,-0.10075325,0.00308081,-0.01152970,-0.00397740,-0.00037
 497,0.00402357,0.00105812,-0.00002144,0.00001337,-0.00003061,-0.000061
 87,0.00003531,-0.00004316,-0.00019500,-0.00014570,0.00009796,0.0001828
 4,0.00017992,-0.00014320,0.00077920,-0.00018035,0.00009680,-0.02331220
 ,0.30019908,-0.00023929,-0.00014439,0.00000844,-0.00021743,0.00023926,
 0.00018163,0.00026966,0.00063001,-0.00018727,0.00166986,0.00006369,0.0
 0026341,0.00093552,0.01110247,0.00284466,-0.00038105,0.00037311,0.0001
 4980,-0.00070955,-0.00170066,0.00182276,0.00036789,0.00018656,-0.00080
 942,0.00145463,0.00052347,-0.00015088,0.00788412,-0.09941645,-0.087882
 36,-0.00208237,0.01179937,0.00508375,0.00263444,-0.03095991,-0.0180358
 2,-0.00004257,-0.00003692,-0.00002119,0.00000714,0.00000467,-0.0000000
 1,0.00006511,0.00010771,-0.00016054,-0.00018149,-0.00000035,-0.0000199
 2,0.00014800,0.00005908,0.00007023,-0.01109802,0.10482038,0.10014843,-
 0.00031499,-0.00008770,0.00045087,-0.00032537,0.00023766,0.00005267,0.
 00040432,0.00005014,-0.00013184,-0.00022912,0.00030604,0.00026824,-0.0
 0350810,0.00377215,-0.00243964,-0.00049521,-0.00093699,-0.00015448,-0.
 00004664,-0.00097119,0.00010108,-0.00006621,0.00037540,0.00002332,0.00
 024657,0.00042533,-0.00022501,-0.02243839,-0.01790952,0.00454751,-0.19
 594939,-0.12987354,0.03188484,0.00073539,-0.00079448,0.00113644,-0.000
 08241,-0.00009562,0.00009284,-0.00000392,-0.00000927,-0.00001240,-0.00
 002081,-0.00004447,0.00001265,0.00020072,-0.00005275,0.00000717,-0.000
 04453,-0.00003972,0.00001189,0.00090250,0.00002442,0.00068916,0.215812
 08,-0.00003070,-0.00004118,-0.00020891,0.00006211,-0.00002971,0.000059
 36,-0.00031625,0.00028619,-0.00011837,0.00020322,-0.00044942,-0.000423
 59,0.00242426,-0.00127507,0.00161691,0.00035763,0.00046997,-0.00021037
 ,0.00004845,0.00006767,0.00003042,-0.00002797,0.00001874,0.00002974,-0
 .00011648,0.00000188,-0.00000305,0.01278863,0.00815547,-0.00146542,-0.
 13174524,-0.15802516,0.02740042,0.00003857,0.00019637,-0.00062238,0.00
 004194,0.00003411,-0.00003432,-0.00003224,0.00001840,0.00005000,0.0000
 1702,0.00000820,-0.00000833,-0.00026333,0.00048202,0.00034371,-0.00000
 097,-0.00001330,0.00000879,-0.00018221,0.00101221,-0.00042322,0.140279
 91,0.17035583,-0.00000794,0.00025190,0.00004919,0.00002645,-0.00017753
 ,-0.00003704,-0.00028956,0.00003893,0.00009559,0.00005021,-0.00009493,
 0.00022208,-0.00128314,0.00085089,-0.00027842,-0.00044582,-0.00036259,
 0.00029087,-0.00002819,-0.00002140,0.00002747,0.00000918,0.00000319,-0
 .00002215,0.00002199,-0.00001878,-0.00005976,-0.00803912,-0.00758395,0
 .00034182,0.03261997,0.02809539,-0.05459300,-0.00040096,-0.00087726,0.
 00068086,-0.00003197,-0.00002170,0.00001022,-0.00000636,0.00000206,0.0
 0001186,-0.00000758,-0.00001134,-0.00000272,0.00005783,0.00020064,-0.0
 0008008,0.00001941,0.00000707,0.00001410,0.00067096,-0.00009166,0.0003
 8090,-0.03421441,-0.03130294,0.05437294,0.00010769,0.00020742,-0.00009
 864,0.00015976,-0.00018835,-0.00007042,-0.00022967,-0.00017751,0.00014
 634,0.00017705,0.00001718,0.00018162,0.00172471,0.00024517,-0.00113660
 ,-0.00013542,0.00007606,0.00032033,0.00008748,0.00047583,-0.00026922,-
 0.00002049,-0.00013061,0.00008978,-0.00010056,-0.00022864,0.00019285,0
 .00132784,0.00331104,-0.02832358,-0.04782532,-0.00348105,0.01922621,-0
 .00534551,0.00263983,-0.00118101,0.00000732,0.00001623,-0.00001750,0.0
 0000850,-0.00000432,-0.00000797,-0.00002005,0.00000352,-0.00001684,0.0
 0003852,-0.00004830,-0.00012064,-0.00000521,0.00000617,-0.00001505,0.0
 0088545,-0.00016553,0.00072542,-0.00117901,-0.00275036,0.02393303,0.05
 162760,0.00004413,-0.00004283,0.00001877,-0.00003484,0.00000676,-0.000
 04722,0.00001609,-0.00000213,0.00011395,-0.00002166,0.00013694,0.00023
 287,-0.00080993,0.00051128,-0.00052029,0.00005789,-0.00006106,-0.00023
 276,-0.00003899,0.00012184,0.00015136,0.00005964,-0.00010228,-0.000116
 38,-0.00001732,-0.00001962,-0.00007741,-0.00219541,-0.00289756,0.01280
 616,-0.00296208,-0.05695594,0.04774609,0.00235209,-0.00090135,0.000159
 38,0.00002095,0.00000439,0.00003162,0.00000271,-0.00000173,-0.00001531
 ,0.00000691,0.00000066,0.00000318,0.00035830,0.00001396,-0.00026770,0.
 00001948,0.00000477,0.00002286,-0.00056016,-0.00011333,-0.00005860,-0.
 00017297,-0.00383613,0.02075494,0.00178559,0.05697165,0.00013341,0.000
 30179,-0.00013088,0.00009716,-0.00028470,-0.00006317,-0.00030932,-0.00
 012342,0.00016154,0.00012259,-0.00023609,0.00025689,0.00116728,0.00035
 778,0.00044503,-0.00057953,-0.00018712,0.00025313,0.00023855,0.0002466
 4,-0.00034297,-0.00010644,-0.00002590,0.00017189,-0.00017186,-0.000120
 89,0.00020960,0.00110356,0.00090594,-0.00927024,0.01741436,0.04763032,
 -0.30696219,-0.00288773,0.00158451,0.00026327,-0.00002200,-0.00000350,
 -0.00001091,0.00000364,-0.00000767,-0.00000335,-0.00002425,-0.00001746
 ,-0.00000361,-0.00002997,0.00002672,-0.00029383,-0.00001473,-0.0000157
 7,-0.00001838,-0.00019250,0.00029455,0.00023497,0.00046121,0.00022949,
 -0.00322663,-0.01790170,-0.05382836,0.33229872,0.00022873,0.00023916,-
 0.00008532,0.00020679,-0.00023262,-0.00006578,-0.00003627,-0.00038795,
 0.00010870,-0.00050094,0.00016140,-0.00001222,0.00162635,0.00055293,0.
 00023105,-0.00030318,-0.00033629,0.00020839,0.00059593,0.00061118,-0.0
 0051258,-0.00012061,-0.00016336,0.00017627,-0.00073158,0.00006645,0.00
 008066,-0.00589667,0.02568662,0.01340632,-0.05829432,0.04818508,0.0269
 9793,0.00137651,-0.00045695,0.00192182,-0.00001890,0.00000103,-0.00000
 610,0.00003390,-0.00003261,-0.00004120,-0.00003784,-0.00001918,0.00001
 072,-0.00245108,-0.00173496,0.00000037,-0.00008102,-0.00006740,0.00001
 022,-0.00450060,0.00161832,-0.00220225,0.00568210,-0.02060359,-0.01277
 325,-0.00165391,0.00163873,0.00116323,0.06478765,-0.00003466,-0.000045
 15,-0.00001678,-0.00004786,-0.00006361,0.00006770,-0.00033311,0.000501
 29,0.00005630,-0.00037059,-0.00091330,-0.00033136,-0.00055247,-0.00054
 524,0.00059763,0.00015236,0.00018204,0.00000360,-0.00042849,-0.0002235
 4,0.00033308,0.00013954,0.00000884,-0.00014962,0.00045197,-0.00001994,
 0.00000250,0.00315105,-0.01265470,-0.00580202,0.04951189,-0.23991178,-
 0.10870818,-0.00063996,0.00074184,-0.00090191,0.00001842,0.00001119,-0
 .00001975,-0.00003772,0.00002780,0.00003308,0.00001849,0.00001270,-0.0
 0004259,-0.00255706,-0.00003485,0.00027985,0.00001119,0.00005586,-0.00
 002130,0.00256837,0.00052884,0.00141008,0.00469701,-0.01762079,-0.0101
 3242,-0.00205936,0.00634740,0.00331223,-0.05384308,0.26333930,-0.00004
 865,0.00004802,-0.00000386,0.00003471,-0.00007600,0.00006242,-0.000237
 16,0.00022482,0.00000182,0.00018266,-0.00063491,-0.00051911,0.00007013
 ,-0.00057260,0.00018048,0.00001821,0.00014911,0.00009541,0.00004331,-0
 .00009004,-0.00009274,-0.00002253,0.00008075,0.00008117,-0.00019241,0.
 00018476,-0.00004547,-0.00184126,0.01077224,0.00463672,0.02804590,-0.1
 0899007,-0.10882045,0.00009204,0.00124251,0.00164103,-0.00000319,0.000
 00625,-0.00002099,-0.00003574,0.00001274,0.00002353,0.00000772,0.00000
 042,-0.00001877,-0.00041326,0.00016065,0.00074611,-0.00005529,-0.00000
 502,0.00000031,-0.00223373,0.00132190,-0.00025531,-0.00185571,0.005297
 87,0.00205132,0.00611020,-0.02773072,-0.01385605,-0.02784348,0.1190275
 9,0.11390045,0.00009844,0.00009863,-0.00006072,0.00005725,-0.00016887,
 -0.00002461,-0.00027191,-0.00001670,0.00002908,0.00019894,0.00044597,0
 .00015665,0.00089235,0.00011332,0.00049310,0.00011104,-0.00004790,0.00
 006480,0.00004378,-0.00049349,-0.00004841,-0.00009107,0.00020212,0.000
 03797,0.00014212,0.00055440,0.00002869,-0.00169380,0.00017032,-0.00036
 143,0.00066977,0.00026948,-0.00068552,-0.21875843,-0.11641454,0.053670
 04,-0.00000947,-0.00000578,0.00001094,-0.00000122,-0.00000655,0.000006
 54,-0.00002425,-0.00001859,-0.00002207,0.00000627,-0.00003020,0.000044
 97,-0.00016165,-0.00007605,0.00013841,0.00001339,0.00011330,0.00036334
 ,0.00038206,-0.00017581,-0.00005583,0.00017415,0.00015717,0.00011347,-
 0.00000275,0.00004443,0.00020640,0.23484802,-0.00034452,-0.00042915,0.
 00005690,-0.00027510,0.00038412,0.00009094,0.00050819,0.00019131,-0.00
 000996,-0.00014245,0.00003818,0.00027167,-0.00053812,0.00102701,0.0008
 4923,0.00047807,-0.00015948,0.00003973,-0.00000125,-0.00020680,0.00009
 992,-0.00001868,0.00010726,0.00002289,-0.00009939,-0.00009388,-0.00005
 160,-0.00129782,-0.00176838,-0.00045265,-0.00020423,-0.00004330,-0.000
 35484,-0.11565211,-0.12679759,0.03682849,-0.00002874,-0.00002130,-0.00
 003047,-0.00001988,0.00000545,-0.00001244,0.00001467,-0.00000800,0.000
 00990,-0.00008962,0.00006923,-0.00026310,0.00006488,-0.00001222,-0.000
 03758,0.00034766,0.00044759,0.00024559,0.00029377,0.00011768,0.0004069
 0,0.00023843,0.00007836,-0.00015325,-0.00010039,-0.00020790,0.00004949
 ,0.12837587,0.13308956,0.00028636,0.00021656,0.00031290,0.00038739,-0.
 00003370,-0.00019998,-0.00013908,-0.00004622,0.00048409,0.00073484,0.0
 0048689,-0.00004046,-0.00167585,-0.00074987,-0.00589726,0.00059136,0.0
 0010355,-0.00004682,-0.00002036,0.00121744,-0.00061874,0.00010666,-0.0
 0042616,0.00005721,-0.00021205,-0.00049423,0.00038438,0.02673375,0.019
 20655,-0.01036108,0.00118321,0.00000564,0.00167812,0.05253379,0.036124
 48,-0.06208746,0.00007674,0.00004324,-0.00000697,-0.00002559,-0.000000
 99,-0.00005242,0.00002850,0.00006327,-0.00003642,-0.00013888,0.0001486
 2,-0.00018305,0.00006385,0.00002367,-0.00000271,0.00001139,-0.00050204
 ,0.00154370,-0.00078057,-0.00011512,-0.00030283,0.00000584,-0.00041375
 ,0.00025544,-0.00020455,0.00004365,-0.00004237,-0.05921104,-0.04081549
 ,0.06970972,0.00003477,0.00000082,-0.00004667,0.00009243,-0.00004813,-
 0.00002889,-0.00014152,-0.00005359,0.00000910,0.00014049,0.00027978,-0
 .00009342,0.00083387,-0.00065940,0.00013062,0.00009670,0.00014975,-0.0
 0009781,-0.00005225,0.00044700,0.00002816,-0.00005814,-0.00014345,0.00
 009806,-0.00094968,0.00061712,0.00130998,0.00160609,-0.00223493,0.0009
 3613,0.00088901,-0.00011051,0.00011821,-0.23506648,0.10146365,-0.07852
 051,0.00001951,0.00001887,-0.00000211,0.00000606,0.00000039,0.00000343
 ,-0.00000270,0.00000770,-0.00000565,0.00000995,-0.00000527,0.00001911,
 0.00002617,0.00011762,0.00001411,0.00002002,0.00008162,-0.00039385,0.0
 0033283,0.00005931,0.00022650,0.00027617,0.00018831,0.00007514,-0.0000
 4785,-0.00008791,0.00014386,-0.01935264,0.01197932,-0.00838513,0.25213
 750,-0.00006949,-0.00004228,-0.00000995,-0.00001706,0.00000416,-0.0000
 0157,-0.00003736,-0.00000887,0.00001306,0.00009677,-0.00034214,-0.0001
 3055,0.00060738,0.00007189,0.00000412,-0.00023672,-0.00002362,0.000018
 93,0.00045027,0.00096006,-0.00055498,-0.00020732,-0.00015741,0.0002863
 6,0.00029938,-0.00150407,-0.00039698,0.00126216,-0.00243799,0.00077047
 ,-0.00038084,0.00030192,0.00056214,0.10152228,-0.10344064,0.04323386,0
 .00001179,0.00001152,0.00001371,-0.00000731,-0.00000187,0.00001177,0.0
 0001019,-0.00000006,0.00001015,0.00001144,0.00014422,-0.00002090,0.000
 11932,-0.00009184,-0.00018481,-0.00041196,0.00024628,0.00007893,0.0003
 9532,0.00008608,0.00007225,0.00032012,0.00047760,0.00007541,-0.0003258
 7,0.00034386,-0.00004134,-0.01537385,0.00904469,-0.00745841,-0.1118265
 1,0.10859043,0.00036445,0.00028158,-0.00018540,0.00017762,-0.00037087,
 -0.00009686,-0.00044268,-0.00005646,0.00006449,0.00039695,0.00043417,0
 .00005919,-0.00135208,-0.00058577,0.00091794,-0.00003881,-0.00003963,0
 .00020702,0.00095990,0.00118471,-0.00161554,-0.00058531,-0.00012994,0.
 00070015,-0.00003318,-0.00073589,0.00060496,-0.02687290,0.01505524,-0.
 01087220,0.00175374,0.00045439,-0.00692765,-0.07541977,0.04162695,-0.0
 7735234,0.00002702,0.00004187,-0.00000612,0.00001195,-0.00002561,0.000
 00925,0.00000725,-0.00000067,-0.00000838,-0.00000203,-0.00009302,0.000
 00397,-0.00012408,-0.00019599,0.00024131,-0.00019645,-0.00033173,0.001
 30086,0.00009589,-0.00021497,0.00008572,-0.00193143,0.00088661,-0.0007
 2687,0.00014613,0.00010354,0.00008539,0.00676288,-0.00484729,0.0023246
 5,0.08396034,-0.04700461,0.08655286,0.00012363,0.00018092,-0.00003500,
 0.00011667,-0.00018696,-0.00002574,-0.00030260,-0.00008353,0.00001729,
 0.00012563,-0.00010257,-0.00015748,0.00025145,0.00112802,0.00006738,-0
 .00026986,-0.00012607,0.00005552,0.00037325,0.00083069,-0.00061707,-0.
 00019535,-0.00018745,0.00026850,-0.00042452,-0.00012382,0.00071753,-0.
 00152246,0.00144156,0.00087618,0.00028357,-0.00119843,-0.00046300,-0.0
 4916797,0.01848235,0.00822851,0.00000477,0.00001471,-0.00000597,0.0000
 0914,-0.00001027,0.00000745,0.00001272,0.00000497,0.00001274,0.0001091
 4,-0.00002178,0.00012597,-0.00003484,-0.00007480,0.00009036,0.00043324
 ,0.00011355,0.00033358,0.00000554,-0.00007592,-0.00005142,-0.00008708,
 0.00010538,0.00014641,0.00013957,0.00022756,-0.00017274,0.00272962,-0.
 02348854,-0.01195060,-0.00085031,0.02378785,0.01233460,0.04813706,-0.0
 0012081,-0.00004934,0.00005125,0.00002648,0.00014880,-0.00004120,0.000
 11775,0.00007230,0.00001589,0.00020761,0.00024579,0.00011103,-0.000480
 23,0.00083606,0.00025484,0.00023653,0.00003161,-0.00008446,-0.00045751
 ,-0.00054985,0.00059437,0.00027014,0.00005742,-0.00030200,0.00033767,0
 .00034524,-0.00049396,0.00013094,0.00204563,0.00132291,-0.00033828,0.0
 0092428,0.00029055,0.01901089,-0.26396980,-0.10038267,0.00000479,-0.00
 000855,-0.00001780,-0.00000193,0.00000598,-0.00000545,0.00002970,0.000
 02574,0.00001591,0.00009295,-0.00000355,-0.00005007,-0.00004449,0.0000
 5050,0.00000393,0.00000765,0.00128840,0.00109615,0.00013105,-0.0000200
 5,0.00001234,-0.00010856,0.00025833,0.00003876,-0.00045666,0.00013981,
 -0.00043842,0.00228329,-0.01485247,-0.00662756,-0.00024155,-0.01223192
 ,-0.00543662,-0.02063742,0.28520964,-0.00041752,-0.00065032,0.00011675
 ,-0.00040090,0.00056574,0.00011359,0.00062522,0.00039729,-0.00012028,0
 .00012880,-0.00049789,0.00028361,-0.00162614,-0.00111527,0.00149365,0.
 00085285,0.00021884,-0.00004798,-0.00027302,-0.00017215,0.00011377,-0.
 00001586,0.00007419,0.00001401,0.00017154,0.00008755,0.00022791,0.0029
 5938,-0.03053643,-0.01813138,0.00128447,-0.00129182,0.00178168,0.00824
 674,-0.09911517,-0.09102010,0.00000335,-0.00000631,-0.00002459,-0.0000
 3596,0.00002573,-0.00000312,0.00003663,0.00001358,-0.00000972,-0.00018
 798,0.00038106,-0.00033521,0.00001286,0.00003293,-0.00004312,0.0001727
 7,0.00148605,-0.00651083,-0.00002172,0.00008429,-0.00003232,0.00015897
 ,0.00038073,0.00035863,-0.00071505,0.00085512,0.00016897,-0.00165768,0
 .00805702,0.00312835,0.00050128,0.01065294,0.00463360,-0.00980302,0.11
 007229,0.10384415\\0.00000430,0.00000132,-0.00000265,0.00002250,-0.000
 00005,-0.00000335,-0.00000693,0.00001471,0.00000129,-0.00000575,0.0000
 0033,-0.00000810,-0.00001464,-0.00003012,0.00001303,0.00000868,-0.0000
 1457,0.00000386,-0.00000674,0.00000524,-0.00005406,-0.00001098,0.00001
 084,0.00002243,-0.00001557,-0.00000160,0.00002817,0.00001620,-0.000016
 19,0.00000502,-0.00000445,0.00002284,0.00000265,0.00000074,0.00001388,
 -0.00000872,0.00000128,-0.00000398,-0.00000076,-0.00000282,-0.00000415
 ,-0.00000863,0.00000421,-0.00000163,0.00000295,-0.00000455,-0.00000257
 ,0.00000358,0.00000026,-0.00000660,-0.00000376,0.00001013,-0.00000614,
 -0.00000993,0.00000611,0.00000321,0.00000647,0.00000336,0.00000535,0.0
 0000358,0.00000049,0.00000068,0.00000237,-0.00000518,0.00000217,-0.000
 00094,-0.00000037,0.00000613,-0.00000059,-0.00000033,0.00000092,0.0000
 0610\\\@
 The archive entry for this job was punched.


 We find comfort among those who agree with us -- growth among those who don't.
 -- Frank A. Clark
 Job cpu time:       1 days  8 hours 52 minutes 13.9 seconds.
 Elapsed time:       0 days  1 hours 38 minutes 37.1 seconds.
 File lengths (MBytes):  RWF=    935 Int=      0 D2E=      0 Chk=     62 Scr=      1
 Normal termination of Gaussian 16 at Wed Apr  2 17:57:57 2025.
