 Entering Gaussian System, Link 0=g16
 Initial command:
 /usr/local/gaussian16c01/g16/l1.exe "/scr/dhuang/Gau-312025.inp" -scrdir="/scr/dhuang/"
 Entering Link 1 = /usr/local/gaussian16c01/g16/l1.exe PID=    312026.
  
 Copyright (c) 1988-2019, Gaussian, Inc.  All Rights Reserved.
  
 This is part of the Gaussian(R) 16 program.  It is based on
 the Gaussian(R) 09 system (copyright 2009, Gaussian, Inc.),
 the Gaussian(R) 03 system (copyright 2003, Gaussian, Inc.),
 the Gaussian(R) 98 system (copyright 1998, Gaussian, Inc.),
 the Gaussian(R) 94 system (copyright 1995, Gaussian, Inc.),
 the Gaussian 92(TM) system (copyright 1992, Gaussian, Inc.),
 the Gaussian 90(TM) system (copyright 1990, Gaussian, Inc.),
 the Gaussian 88(TM) system (copyright 1988, Gaussian, Inc.),
 the Gaussian 86(TM) system (copyright 1986, Carnegie Mellon
 University), and the Gaussian 82(TM) system (copyright 1983,
 Carnegie Mellon University). Gaussian is a federally registered
 trademark of Gaussian, Inc.
  
 This software contains proprietary and confidential information,
 including trade secrets, belonging to Gaussian, Inc.
  
 This software is provided under written license and may be
 used, copied, transmitted, or stored only in accord with that
 written license.
  
 The following legend is applicable only to US Government
 contracts under FAR:
  
                    RESTRICTED RIGHTS LEGEND
  
 Use, reproduction and disclosure by the US Government is
 subject to restrictions as set forth in subparagraphs (a)
 and (c) of the Commercial Computer Software - Restricted
 Rights clause in FAR 52.227-19.
  
 Gaussian, Inc.
 340 Quinnipiac St., Bldg. 40, Wallingford CT 06492
  
  
 ---------------------------------------------------------------
 Warning -- This program may not be used in any manner that
 competes with the business of Gaussian, Inc. or will provide
 assistance to any competitor of Gaussian, Inc.  The licensee
 of this program is prohibited from giving any competitor of
 Gaussian, Inc. access to this program.  By using this program,
 the user acknowledges that Gaussian, Inc. is engaged in the
 business of creating and licensing software in the field of
 computational chemistry and represents and warrants to the
 licensee that it is not a competitor of Gaussian, Inc. and that
 it will not use this program in any manner prohibited above.
 ---------------------------------------------------------------
  

 Cite this work as:
 Gaussian 16, Revision C.01,
 M. J. Frisch, G. W. Trucks, H. B. Schlegel, G. E. Scuseria, 
 M. A. Robb, J. R. Cheeseman, G. Scalmani, V. Barone, 
 G. A. Petersson, H. Nakatsuji, X. Li, M. Caricato, A. V. Marenich, 
 J. Bloino, B. G. Janesko, R. Gomperts, B. Mennucci, H. P. Hratchian, 
 J. V. Ortiz, A. F. Izmaylov, J. L. Sonnenberg, D. Williams-Young, 
 F. Ding, F. Lipparini, F. Egidi, J. Goings, B. Peng, A. Petrone, 
 T. Henderson, D. Ranasinghe, V. G. Zakrzewski, J. Gao, N. Rega, 
 G. Zheng, W. Liang, M. Hada, M. Ehara, K. Toyota, R. Fukuda, 
 J. Hasegawa, M. Ishida, T. Nakajima, Y. Honda, O. Kitao, H. Nakai, 
 T. Vreven, K. Throssell, J. A. Montgomery, Jr., J. E. Peralta, 
 F. Ogliaro, M. J. Bearpark, J. J. Heyd, E. N. Brothers, K. N. Kudin, 
 V. N. Staroverov, T. A. Keith, R. Kobayashi, J. Normand, 
 K. Raghavachari, A. P. Rendell, J. C. Burant, S. S. Iyengar, 
 J. Tomasi, M. Cossi, J. M. Millam, M. Klene, C. Adamo, R. Cammi, 
 J. W. Ochterski, R. L. Martin, K. Morokuma, O. Farkas, 
 J. B. Foresman, and D. J. Fox, Gaussian, Inc., Wallingford CT, 2019.
 
 ******************************************
 Gaussian 16:  ES64L-G16RevC.01  3-Jul-2019
                 2-Apr-2025 
 ******************************************
 %nprocshared=20
 Will use up to   20 processors via shared memory.
 %mem=10000MW
 %chk=o-OMe.chk
 ------------------------------------
 # opt freq m062x/aug-cc-pvtz pop=nbo
 ------------------------------------
 1/18=20,19=15,26=3,38=1/1,3;
 2/9=110,12=2,17=6,18=5,40=1/2;
 3/5=16,6=1,7=10,11=2,25=1,30=1,71=1,74=-55/1,2,3;
 4//1;
 5/5=2,38=5/2;
 6/7=2,8=2,9=2,10=2,28=1,40=1/1,7;
 7//1,2,3,16;
 1/18=20,19=15,26=3/3(2);
 2/9=110/2;
 99//99;
 2/9=110/2;
 3/5=16,6=1,7=10,11=2,25=1,30=1,71=1,74=-55/1,2,3;
 4/5=5,16=3,69=1/1;
 5/5=2,38=5/2;
 7//1,2,3,16;
 1/18=20,19=15,26=3/3(-5);
 2/9=110/2;
 6/7=2,8=2,9=2,10=2,19=2,28=1,40=1/1,7;
 99/9=1/99;
 -----
 o-OMe
 -----
 Symbolic Z-matrix:
 Charge =  0 Multiplicity = 1
 C                    -2.025    -0.478    -0.0227 
 C                    -1.8698   -1.7958    0.1693 
 C                    -0.661    -2.3438    0.0024 
 C                     0.3672   -1.5543   -0.3337 
 C                     0.2492   -0.2182   -0.477 
 C                    -0.9905    0.3209   -0.3602 
 C                    -1.2205    1.6571   -0.5556 
 O                    -2.3228    2.1539   -0.4476 
 O                    -0.2596    2.5583   -0.8797 
 O                     1.3581    0.4903   -0.8696 
 C                     2.2213    0.8378    0.1901 
 H                    -3.0506   -0.0936    0.1071 
 H                    -2.731    -2.4296    0.4402 
 H                    -0.5182   -3.43      0.1276 
 H                     1.3524   -2.0264   -0.492 
 H                    -0.6805    3.43     -0.952 
 H                     2.6467   -0.079     0.6555 
 H                     3.0506    1.4522   -0.226 
 H                     1.6714    1.4343    0.952 
 

 GradGradGradGradGradGradGradGradGradGradGradGradGradGradGradGradGradGrad
 Berny optimization.
 Initialization pass.
                           ----------------------------
                           !    Initial Parameters    !
                           ! (Angstroms and Degrees)  !
 --------------------------                            --------------------------
 ! Name  Definition              Value          Derivative Info.                !
 --------------------------------------------------------------------------------
 ! R1    R(1,2)                  1.3407         estimate D2E/DX2                !
 ! R2    R(1,6)                  1.3499         estimate D2E/DX2                !
 ! R3    R(1,12)                 1.1029         estimate D2E/DX2                !
 ! R4    R(2,3)                  1.3377         estimate D2E/DX2                !
 ! R5    R(2,13)                 1.1031         estimate D2E/DX2                !
 ! R6    R(3,4)                  1.3392         estimate D2E/DX2                !
 ! R7    R(3,14)                 1.1027         estimate D2E/DX2                !
 ! R8    R(4,5)                  1.3489         estimate D2E/DX2                !
 ! R9    R(4,15)                 1.1039         estimate D2E/DX2                !
 ! R10   R(5,6)                  1.3569         estimate D2E/DX2                !
 ! R11   R(5,10)                 1.3732         estimate D2E/DX2                !
 ! R12   R(6,7)                  1.3699         estimate D2E/DX2                !
 ! R13   R(7,8)                  1.2139         estimate D2E/DX2                !
 ! R14   R(7,9)                  1.3567         estimate D2E/DX2                !
 ! R15   R(9,16)                 0.9707         estimate D2E/DX2                !
 ! R16   R(10,11)                1.4103         estimate D2E/DX2                !
 ! R17   R(11,17)                1.1127         estimate D2E/DX2                !
 ! R18   R(11,18)                1.1128         estimate D2E/DX2                !
 ! R19   R(11,19)                1.113          estimate D2E/DX2                !
 ! A1    A(2,1,6)              121.9229         estimate D2E/DX2                !
 ! A2    A(2,1,12)             115.6805         estimate D2E/DX2                !
 ! A3    A(6,1,12)             122.3956         estimate D2E/DX2                !
 ! A4    A(1,2,3)              119.3012         estimate D2E/DX2                !
 ! A5    A(1,2,13)             120.6338         estimate D2E/DX2                !
 ! A6    A(3,2,13)             120.0512         estimate D2E/DX2                !
 ! A7    A(2,3,4)              118.9212         estimate D2E/DX2                !
 ! A8    A(2,3,14)             120.4248         estimate D2E/DX2                !
 ! A9    A(4,3,14)             120.6496         estimate D2E/DX2                !
 ! A10   A(3,4,5)              122.9167         estimate D2E/DX2                !
 ! A11   A(3,4,15)             117.9751         estimate D2E/DX2                !
 ! A12   A(5,4,15)             119.1069         estimate D2E/DX2                !
 ! A13   A(4,5,6)              117.6653         estimate D2E/DX2                !
 ! A14   A(4,5,10)             118.0837         estimate D2E/DX2                !
 ! A15   A(6,5,10)             123.876          estimate D2E/DX2                !
 ! A16   A(1,6,5)              119.1135         estimate D2E/DX2                !
 ! A17   A(1,6,7)              118.9639         estimate D2E/DX2                !
 ! A18   A(5,6,7)              121.9155         estimate D2E/DX2                !
 ! A19   A(6,7,8)              122.6142         estimate D2E/DX2                !
 ! A20   A(6,7,9)              124.2712         estimate D2E/DX2                !
 ! A21   A(8,7,9)              113.1139         estimate D2E/DX2                !
 ! A22   A(7,9,16)             107.8912         estimate D2E/DX2                !
 ! A23   A(5,10,11)            113.9895         estimate D2E/DX2                !
 ! A24   A(10,11,17)           110.1986         estimate D2E/DX2                !
 ! A25   A(10,11,18)           108.1327         estimate D2E/DX2                !
 ! A26   A(10,11,19)           110.1232         estimate D2E/DX2                !
 ! A27   A(17,11,18)           109.0501         estimate D2E/DX2                !
 ! A28   A(17,11,19)           110.1308         estimate D2E/DX2                !
 ! A29   A(18,11,19)           109.1637         estimate D2E/DX2                !
 ! D1    D(6,1,2,3)             -1.0733         estimate D2E/DX2                !
 ! D2    D(6,1,2,13)          -179.7204         estimate D2E/DX2                !
 ! D3    D(12,1,2,3)           178.5779         estimate D2E/DX2                !
 ! D4    D(12,1,2,13)           -0.0692         estimate D2E/DX2                !
 ! D5    D(2,1,6,5)             -1.642          estimate D2E/DX2                !
 ! D6    D(2,1,6,7)            179.3081         estimate D2E/DX2                !
 ! D7    D(12,1,6,5)           178.7303         estimate D2E/DX2                !
 ! D8    D(12,1,6,7)            -0.3196         estimate D2E/DX2                !
 ! D9    D(1,2,3,4)              0.9753         estimate D2E/DX2                !
 ! D10   D(1,2,3,14)          -178.2656         estimate D2E/DX2                !
 ! D11   D(13,2,3,4)           179.6304         estimate D2E/DX2                !
 ! D12   D(13,2,3,14)            0.3895         estimate D2E/DX2                !
 ! D13   D(2,3,4,5)              1.8965         estimate D2E/DX2                !
 ! D14   D(2,3,4,15)          -178.5087         estimate D2E/DX2                !
 ! D15   D(14,3,4,5)          -178.8644         estimate D2E/DX2                !
 ! D16   D(14,3,4,15)            0.7304         estimate D2E/DX2                !
 ! D17   D(3,4,5,6)             -4.5414         estimate D2E/DX2                !
 ! D18   D(3,4,5,10)          -177.7878         estimate D2E/DX2                !
 ! D19   D(15,4,5,6)           175.8683         estimate D2E/DX2                !
 ! D20   D(15,4,5,10)            2.6218         estimate D2E/DX2                !
 ! D21   D(4,5,6,1)              4.2973         estimate D2E/DX2                !
 ! D22   D(4,5,6,7)           -176.6821         estimate D2E/DX2                !
 ! D23   D(10,5,6,1)           177.1184         estimate D2E/DX2                !
 ! D24   D(10,5,6,7)            -3.8609         estimate D2E/DX2                !
 ! D25   D(4,5,10,11)          -84.254          estimate D2E/DX2                !
 ! D26   D(6,5,10,11)          102.9527         estimate D2E/DX2                !
 ! D27   D(1,6,7,8)             -0.5855         estimate D2E/DX2                !
 ! D28   D(1,6,7,9)            179.1186         estimate D2E/DX2                !
 ! D29   D(5,6,7,8)           -179.6076         estimate D2E/DX2                !
 ! D30   D(5,6,7,9)              0.0965         estimate D2E/DX2                !
 ! D31   D(6,7,9,16)          -179.4881         estimate D2E/DX2                !
 ! D32   D(8,7,9,16)             0.241          estimate D2E/DX2                !
 ! D33   D(5,10,11,17)          63.9655         estimate D2E/DX2                !
 ! D34   D(5,10,11,18)        -176.9278         estimate D2E/DX2                !
 ! D35   D(5,10,11,19)         -57.727          estimate D2E/DX2                !
 --------------------------------------------------------------------------------
 Trust Radius=3.00D-01 FncErr=1.00D-07 GrdErr=1.00D-06 EigMax=2.50D+02 EigMin=1.00D-04
 Number of steps in this run=     93 maximum allowed number of steps=    114.
 GradGradGradGradGradGradGradGradGradGradGradGradGradGradGradGradGradGrad

                          Input orientation:                          
 ---------------------------------------------------------------------
 Center     Atomic      Atomic             Coordinates (Angstroms)
 Number     Number       Type             X           Y           Z
 ---------------------------------------------------------------------
      1          6           0       -2.025000   -0.478000   -0.022700
      2          6           0       -1.869800   -1.795800    0.169300
      3          6           0       -0.661000   -2.343800    0.002400
      4          6           0        0.367200   -1.554300   -0.333700
      5          6           0        0.249200   -0.218200   -0.477000
      6          6           0       -0.990500    0.320900   -0.360200
      7          6           0       -1.220500    1.657100   -0.555600
      8          8           0       -2.322800    2.153900   -0.447600
      9          8           0       -0.259600    2.558300   -0.879700
     10          8           0        1.358100    0.490300   -0.869600
     11          6           0        2.221300    0.837800    0.190100
     12          1           0       -3.050600   -0.093600    0.107100
     13          1           0       -2.731000   -2.429600    0.440200
     14          1           0       -0.518200   -3.430000    0.127600
     15          1           0        1.352400   -2.026400   -0.492000
     16          1           0       -0.680500    3.430000   -0.952000
     17          1           0        2.646700   -0.079000    0.655500
     18          1           0        3.050600    1.452200   -0.226000
     19          1           0        1.671400    1.434300    0.952000
 ---------------------------------------------------------------------
                    Distance matrix (angstroms):
                    1          2          3          4          5
     1  C    0.000000
     2  C    1.340727   0.000000
     3  C    2.311349   1.337669   0.000000
     4  C    2.641546   2.305537   1.339205   0.000000
     5  C    2.333639   2.719685   2.361454   1.348934   0.000000
     6  C    1.349940   2.352437   2.709368   2.315260   1.356881
     7  C    2.343044   3.587421   4.078186   3.589306   2.383893
     8  O    2.682559   4.023171   4.815951   4.582556   3.498987
     9  O    3.615274   4.759342   4.996980   4.195768   2.851315
    10  O    3.619421   4.089609   3.587377   2.334408   1.373232
    11  C    4.450582   4.865530   4.297146   3.071514   2.334381
    12  H    1.102936   2.072593   3.283984   3.742901   3.353413
    13  H    2.126371   1.103066   2.117529   3.311180   3.822713
    14  H    3.317731   2.121125   1.102677   2.124849   3.357097
    15  H    3.744945   3.297433   2.097368   1.103882   2.118222
    16  H    4.236006   5.475467   5.852181   5.130616   3.794645
    17  H    4.737503   4.856188   4.061618   2.889835   2.655172
    18  H    5.434033   5.908985   5.313921   4.031287   3.271250
    19  H    4.274378   4.856569   4.540470   3.505095   2.606808
                    6          7          8          9         10
     6  C    0.000000
     7  C    1.369858   0.000000
     8  O    2.267719   1.213894   0.000000
     9  O    2.410405   1.356662   2.146403   0.000000
    10  O    2.409171   2.847665   4.061364   2.625582   0.000000
    11  C    3.299345   3.615703   4.773639   3.203039   1.410260
    12  H    2.152717   2.617898   2.426652   3.974422   4.553188
    13  H    3.351900   4.469267   4.686501   5.720935   5.192507
    14  H    3.811859   5.180596   5.896387   6.077933   4.459110
    15  H    3.319092   4.493554   5.566325   4.875277   2.544876
    16  H    3.180068   1.895233   2.140093   0.970693   3.578340
    17  H    3.797472   4.408633   5.558651   4.214116   2.076180
    18  H    4.198612   4.288696   5.423552   3.550803   2.050373
    19  H    3.169738   3.268881   4.293057   2.889163   2.075456
                   11         12         13         14         15
    11  C    0.000000
    12  H    5.354188   0.000000
    13  H    5.938327   2.381175   0.000000
    14  H    5.071773   4.188679   2.448469   0.000000
    15  H    3.069835   4.845724   4.207817   2.419327   0.000000
    16  H    4.055162   4.376622   6.362207   6.946328   5.840940
    17  H    1.112692   5.723651   5.872932   4.639447   2.604676
    18  H    1.112819   6.302785   6.995648   6.057825   3.880116
    19  H    1.112966   5.034443   5.879863   5.397722   3.763422
                   16         17         18         19
    16  H    0.000000
    17  H    5.095822   0.000000
    18  H    4.284843   1.812388   0.000000
    19  H    3.624840   1.824609   1.813890   0.000000
 Stoichiometry    C8H8O3
 Framework group  C1[X(C8H8O3)]
 Deg. of freedom    51
 Full point group                 C1      NOp   1
 Largest Abelian subgroup         C1      NOp   1
 Largest concise Abelian subgroup C1      NOp   1
                         Standard orientation:                         
 ---------------------------------------------------------------------
 Center     Atomic      Atomic             Coordinates (Angstroms)
 Number     Number       Type             X           Y           Z
 ---------------------------------------------------------------------
      1          6           0        0.983809   -1.498558    0.173501
      2          6           0        2.276070   -1.141369    0.178524
      3          6           0        2.603381    0.134991   -0.051974
      4          6           0        1.626277    1.026317   -0.262394
      5          6           0        0.317315    0.703658   -0.216240
      6          6           0       -0.003650   -0.602462   -0.036910
      7          6           0       -1.302938   -1.036420   -0.043455
      8          8           0       -1.604809   -2.200400    0.122573
      9          8           0       -2.377288   -0.228544   -0.226865
     10          8           0       -0.600915    1.686456   -0.493237
     11          6           0       -0.922977    2.498695    0.613731
     12          1           0        0.783212   -2.569297    0.345973
     13          1           0        3.066105   -1.892251    0.348155
     14          1           0        3.661576    0.443718   -0.080403
     15          1           0        1.914800    2.070215   -0.475909
     16          1           0       -3.175640   -0.778648   -0.179280
     17          1           0       -0.025585    3.064750    0.948922
     18          1           0       -1.709700    3.219322    0.297299
     19          1           0       -1.314396    1.872986    1.446781
 ---------------------------------------------------------------------
 Rotational constants (GHZ):           1.5290871           1.2207621           0.7076803
 Standard basis: Aug-CC-pVTZ (5D, 7F)
 There are   805 symmetry adapted cartesian basis functions of A   symmetry.
 There are   690 symmetry adapted basis functions of A   symmetry.
   690 basis functions,  1008 primitive gaussians,   805 cartesian basis functions
    40 alpha electrons       40 beta electrons
       nuclear repulsion energy       612.3740837861 Hartrees.
 NAtoms=   19 NActive=   19 NUniq=   19 SFac= 1.00D+00 NAtFMM=   60 NAOKFM=F Big=F
 Integral buffers will be    131072 words long.
 Raffenetti 2 integral format.
 Two-electron integral symmetry is turned on.
 One-electron integrals computed using PRISM.
 NBasis=   690 RedAO= T EigKep=  1.71D-06  NBF=   690
 NBsUse=   686 1.00D-06 EigRej=  9.60D-07 NBFU=   686
 ExpMin= 2.53D-02 ExpMax= 1.53D+04 ExpMxC= 5.22D+02 IAcc=3 IRadAn=         5 AccDes= 0.00D+00
 Harris functional with IExCor= 1009 and IRadAn=       5 diagonalized for initial guess.
 HarFok:  IExCor= 1009 AccDes= 0.00D+00 IRadAn=         5 IDoV= 1 UseB2=F ITyADJ=14
 ICtDFT=  3500011 ScaDFX=  1.000000  1.000000  1.000000  1.000000
 FoFCou: FMM=F IPFlag=           0 FMFlag=      100000 FMFlg1=           0
         NFxFlg=           0 DoJE=T BraDBF=F KetDBF=T FulRan=T
         wScrn=  0.000000 ICntrl=       500 IOpCl=  0 I1Cent=   200000004 NGrid=           0
         NMat0=    1 NMatS0=      1 NMatT0=    0 NMatD0=    1 NMtDS0=    0 NMtDT0=    0
 Petite list used in FoFCou.
 Requested convergence on RMS density matrix=1.00D-08 within 128 cycles.
 Requested convergence on MAX density matrix=1.00D-06.
 Requested convergence on             energy=1.00D-06.
 No special actions if energy rises.
 SCF Done:  E(RM062X) =  -535.301004100     A.U. after   13 cycles
            NFock= 13  Conv=0.73D-08     -V/T= 2.0035

 **********************************************************************

            Population analysis using the SCF Density.

 **********************************************************************

 Orbital symmetries:
       Occupied  (A) (A) (A) (A) (A) (A) (A) (A) (A) (A) (A) (A)
                 (A) (A) (A) (A) (A) (A) (A) (A) (A) (A) (A) (A)
                 (A) (A) (A) (A) (A) (A) (A) (A) (A) (A) (A) (A)
                 (A) (A) (A) (A)
       Virtual   (A) (A) (A) (A) (A) (A) (A) (A) (A) (A) (A) (A)
                 (A) (A) (A) (A) (A) (A) (A) (A) (A) (A) (A) (A)
                 (A) (A) (A) (A) (A) (A) (A) (A) (A) (A) (A) (A)
                 (A) (A) (A) (A) (A) (A) (A) (A) (A) (A) (A) (A)
                 (A) (A) (A) (A) (A) (A) (A) (A) (A) (A) (A) (A)
                 (A) (A) (A) (A) (A) (A) (A) (A) (A) (A) (A) (A)
                 (A) (A) (A) (A) (A) (A) (A) (A) (A) (A) (A) (A)
                 (A) (A) (A) (A) (A) (A) (A) (A) (A) (A) (A) (A)
                 (A) (A) (A) (A) (A) (A) (A) (A) (A) (A) (A) (A)
                 (A) (A) (A) (A) (A) (A) (A) (A) (A) (A) (A) (A)
                 (A) (A) (A) (A) (A) (A) (A) (A) (A) (A) (A) (A)
                 (A) (A) (A) (A) (A) (A) (A) (A) (A) (A) (A) (A)
                 (A) (A) (A) (A) (A) (A) (A) (A) (A) (A) (A) (A)
                 (A) (A) (A) (A) (A) (A) (A) (A) (A) (A) (A) (A)
                 (A) (A) (A) (A) (A) (A) (A) (A) (A) (A) (A) (A)
                 (A) (A) (A) (A) (A) (A) (A) (A) (A) (A) (A) (A)
                 (A) (A) (A) (A) (A) (A) (A) (A) (A) (A) (A) (A)
                 (A) (A) (A) (A) (A) (A) (A) (A) (A) (A) (A) (A)
                 (A) (A) (A) (A) (A) (A) (A) (A) (A) (A) (A) (A)
                 (A) (A) (A) (A) (A) (A) (A) (A) (A) (A) (A) (A)
                 (A) (A) (A) (A) (A) (A) (A) (A) (A) (A) (A) (A)
                 (A) (A) (A) (A) (A) (A) (A) (A) (A) (A) (A) (A)
                 (A) (A) (A) (A) (A) (A) (A) (A) (A) (A) (A) (A)
                 (A) (A) (A) (A) (A) (A) (A) (A) (A) (A) (A) (A)
                 (A) (A) (A) (A) (A) (A) (A) (A) (A) (A) (A) (A)
                 (A) (A) (A) (A) (A) (A) (A) (A) (A) (A) (A) (A)
                 (A) (A) (A) (A) (A) (A) (A) (A) (A) (A) (A) (A)
                 (A) (A) (A) (A) (A) (A) (A) (A) (A) (A) (A) (A)
                 (A) (A) (A) (A) (A) (A) (A) (A) (A) (A) (A) (A)
                 (A) (A) (A) (A) (A) (A) (A) (A) (A) (A) (A) (A)
                 (A) (A) (A) (A) (A) (A) (A) (A) (A) (A) (A) (A)
                 (A) (A) (A) (A) (A) (A) (A) (A) (A) (A) (A) (A)
                 (A) (A) (A) (A) (A) (A) (A) (A) (A) (A) (A) (A)
                 (A) (A) (A) (A) (A) (A) (A) (A) (A) (A) (A) (A)
                 (A) (A) (A) (A) (A) (A) (A) (A) (A) (A) (A) (A)
                 (A) (A) (A) (A) (A) (A) (A) (A) (A) (A) (A) (A)
                 (A) (A) (A) (A) (A) (A) (A) (A) (A) (A) (A) (A)
                 (A) (A) (A) (A) (A) (A) (A) (A) (A) (A) (A) (A)
                 (A) (A) (A) (A) (A) (A) (A) (A) (A) (A) (A) (A)
                 (A) (A) (A) (A) (A) (A) (A) (A) (A) (A) (A) (A)
                 (A) (A) (A) (A) (A) (A) (A) (A) (A) (A) (A) (A)
                 (A) (A) (A) (A) (A) (A) (A) (A) (A) (A) (A) (A)
                 (A) (A) (A) (A) (A) (A) (A) (A) (A) (A) (A) (A)
                 (A) (A) (A) (A) (A) (A) (A) (A) (A) (A) (A) (A)
                 (A) (A) (A) (A) (A) (A) (A) (A) (A) (A) (A) (A)
                 (A) (A) (A) (A) (A) (A) (A) (A) (A) (A) (A) (A)
                 (A) (A) (A) (A) (A) (A) (A) (A) (A) (A) (A) (A)
                 (A) (A) (A) (A) (A) (A) (A) (A) (A) (A) (A) (A)
                 (A) (A) (A) (A) (A) (A) (A) (A) (A) (A) (A) (A)
                 (A) (A) (A) (A) (A) (A) (A) (A) (A) (A) (A) (A)
                 (A) (A) (A) (A) (A) (A) (A) (A) (A) (A) (A) (A)
                 (A) (A) (A) (A) (A) (A) (A) (A) (A) (A) (A) (A)
                 (A) (A) (A) (A) (A) (A) (A) (A) (A) (A) (A) (A)
                 (A) (A) (A) (A) (A) (A) (A) (A) (A) (A)
 The electronic state is 1-A.
 Alpha  occ. eigenvalues --  -19.65865 -19.64949 -19.60048 -10.66931 -10.61315
 Alpha  occ. eigenvalues --  -10.59778 -10.55648 -10.55623 -10.55465 -10.54701
 Alpha  occ. eigenvalues --  -10.54571  -1.23478  -1.19394  -1.12169  -1.01159
 Alpha  occ. eigenvalues --   -0.90771  -0.87540  -0.79577  -0.77109  -0.70608
 Alpha  occ. eigenvalues --   -0.68310  -0.63588  -0.59841  -0.57652  -0.56093
 Alpha  occ. eigenvalues --   -0.55512  -0.55161  -0.52946  -0.51953  -0.50610
 Alpha  occ. eigenvalues --   -0.47715  -0.46753  -0.45219  -0.42783  -0.41809
 Alpha  occ. eigenvalues --   -0.39076  -0.35790  -0.35101  -0.33561  -0.32324
 Alpha virt. eigenvalues --   -0.03237  -0.00936   0.00035   0.00496   0.01176
 Alpha virt. eigenvalues --    0.01471   0.02062   0.02248   0.03320   0.03940
 Alpha virt. eigenvalues --    0.04123   0.04337   0.05790   0.06688   0.06979
 Alpha virt. eigenvalues --    0.07435   0.07506   0.07843   0.08061   0.08502
 Alpha virt. eigenvalues --    0.09036   0.09181   0.09233   0.09902   0.10157
 Alpha virt. eigenvalues --    0.10666   0.10888   0.11365   0.11853   0.12415
 Alpha virt. eigenvalues --    0.12581   0.13007   0.13027   0.13618   0.14320
 Alpha virt. eigenvalues --    0.14835   0.15307   0.16156   0.16226   0.17297
 Alpha virt. eigenvalues --    0.18088   0.18537   0.19222   0.19879   0.20181
 Alpha virt. eigenvalues --    0.20590   0.20839   0.21417   0.21647   0.22559
 Alpha virt. eigenvalues --    0.22755   0.22934   0.23373   0.23978   0.24035
 Alpha virt. eigenvalues --    0.24570   0.25255   0.25842   0.26073   0.26777
 Alpha virt. eigenvalues --    0.27273   0.27360   0.27586   0.27814   0.28428
 Alpha virt. eigenvalues --    0.28611   0.29172   0.29731   0.30333   0.30453
 Alpha virt. eigenvalues --    0.31444   0.32534   0.32900   0.33147   0.33279
 Alpha virt. eigenvalues --    0.33756   0.34301   0.34841   0.35165   0.35242
 Alpha virt. eigenvalues --    0.35688   0.35951   0.36464   0.36578   0.37336
 Alpha virt. eigenvalues --    0.37505   0.37627   0.38466   0.38888   0.39045
 Alpha virt. eigenvalues --    0.39503   0.39914   0.40409   0.41204   0.41687
 Alpha virt. eigenvalues --    0.42519   0.42651   0.42690   0.42871   0.43729
 Alpha virt. eigenvalues --    0.44063   0.44634   0.44826   0.45119   0.45824
 Alpha virt. eigenvalues --    0.46223   0.46383   0.47023   0.47303   0.47890
 Alpha virt. eigenvalues --    0.48278   0.48980   0.49773   0.50692   0.51063
 Alpha virt. eigenvalues --    0.52476   0.52825   0.54429   0.55383   0.55675
 Alpha virt. eigenvalues --    0.56439   0.57237   0.57412   0.58197   0.58870
 Alpha virt. eigenvalues --    0.59184   0.59935   0.60625   0.61627   0.62943
 Alpha virt. eigenvalues --    0.63078   0.63715   0.63880   0.64819   0.65718
 Alpha virt. eigenvalues --    0.66172   0.66930   0.67766   0.68364   0.68813
 Alpha virt. eigenvalues --    0.69981   0.70014   0.70979   0.71823   0.72083
 Alpha virt. eigenvalues --    0.72868   0.73108   0.73828   0.74061   0.74283
 Alpha virt. eigenvalues --    0.75078   0.75211   0.75610   0.76181   0.76402
 Alpha virt. eigenvalues --    0.77025   0.78027   0.78596   0.79158   0.80014
 Alpha virt. eigenvalues --    0.80166   0.80721   0.81189   0.82182   0.82843
 Alpha virt. eigenvalues --    0.82935   0.83423   0.83760   0.84316   0.84637
 Alpha virt. eigenvalues --    0.85100   0.85620   0.86320   0.87091   0.87594
 Alpha virt. eigenvalues --    0.88138   0.88744   0.89339   0.90414   0.90766
 Alpha virt. eigenvalues --    0.91683   0.92165   0.92440   0.93275   0.93740
 Alpha virt. eigenvalues --    0.94197   0.94532   0.94812   0.96056   0.96391
 Alpha virt. eigenvalues --    0.96667   0.97115   0.97669   0.98071   0.98666
 Alpha virt. eigenvalues --    0.99301   0.99495   1.00393   1.00556   1.01049
 Alpha virt. eigenvalues --    1.02223   1.03021   1.03883   1.04296   1.04612
 Alpha virt. eigenvalues --    1.05211   1.05860   1.06142   1.06516   1.06858
 Alpha virt. eigenvalues --    1.07723   1.09089   1.09345   1.09782   1.11348
 Alpha virt. eigenvalues --    1.11458   1.12030   1.12733   1.13779   1.15052
 Alpha virt. eigenvalues --    1.15624   1.16584   1.16765   1.16983   1.18805
 Alpha virt. eigenvalues --    1.19407   1.20584   1.20838   1.21887   1.22243
 Alpha virt. eigenvalues --    1.22943   1.23634   1.24397   1.24719   1.25665
 Alpha virt. eigenvalues --    1.25827   1.26740   1.27764   1.28481   1.29678
 Alpha virt. eigenvalues --    1.31009   1.32167   1.32738   1.33403   1.34335
 Alpha virt. eigenvalues --    1.35261   1.36017   1.36951   1.37655   1.38082
 Alpha virt. eigenvalues --    1.39095   1.39888   1.41082   1.42171   1.42450
 Alpha virt. eigenvalues --    1.42833   1.44500   1.45391   1.45791   1.46755
 Alpha virt. eigenvalues --    1.47188   1.47892   1.48372   1.49918   1.50755
 Alpha virt. eigenvalues --    1.52015   1.52236   1.52952   1.53919   1.54172
 Alpha virt. eigenvalues --    1.54458   1.56730   1.57275   1.58477   1.58640
 Alpha virt. eigenvalues --    1.60123   1.60660   1.60998   1.62748   1.63314
 Alpha virt. eigenvalues --    1.64012   1.64531   1.65313   1.66429   1.66982
 Alpha virt. eigenvalues --    1.67998   1.68360   1.68956   1.69780   1.70859
 Alpha virt. eigenvalues --    1.71092   1.72281   1.72826   1.73860   1.74433
 Alpha virt. eigenvalues --    1.75293   1.76489   1.77710   1.78831   1.79813
 Alpha virt. eigenvalues --    1.80497   1.81436   1.82441   1.83380   1.83642
 Alpha virt. eigenvalues --    1.84745   1.85180   1.87422   1.87629   1.89854
 Alpha virt. eigenvalues --    1.89944   1.90077   1.91671   1.92240   1.93210
 Alpha virt. eigenvalues --    1.94263   1.95665   1.96942   1.97734   1.98021
 Alpha virt. eigenvalues --    1.98369   2.00001   2.00547   2.01256   2.02734
 Alpha virt. eigenvalues --    2.03540   2.04275   2.05190   2.06375   2.06916
 Alpha virt. eigenvalues --    2.08538   2.10394   2.12547   2.13180   2.13637
 Alpha virt. eigenvalues --    2.15360   2.16606   2.17345   2.17797   2.19170
 Alpha virt. eigenvalues --    2.21875   2.22846   2.24291   2.26281   2.27632
 Alpha virt. eigenvalues --    2.28687   2.29702   2.30718   2.32427   2.32468
 Alpha virt. eigenvalues --    2.36908   2.38597   2.38809   2.39876   2.40735
 Alpha virt. eigenvalues --    2.41577   2.44799   2.45220   2.46358   2.47759
 Alpha virt. eigenvalues --    2.48616   2.50383   2.51809   2.53156   2.53747
 Alpha virt. eigenvalues --    2.54651   2.58149   2.58494   2.59968   2.60469
 Alpha virt. eigenvalues --    2.62982   2.64406   2.65297   2.68315   2.71442
 Alpha virt. eigenvalues --    2.72305   2.72637   2.74358   2.74717   2.76854
 Alpha virt. eigenvalues --    2.78144   2.81080   2.81784   2.83831   2.86359
 Alpha virt. eigenvalues --    2.86903   2.87466   2.89158   2.90089   2.92136
 Alpha virt. eigenvalues --    2.94181   2.96303   2.97309   2.97357   2.99275
 Alpha virt. eigenvalues --    3.01194   3.01771   3.03975   3.05260   3.06958
 Alpha virt. eigenvalues --    3.07386   3.09609   3.10911   3.11770   3.13315
 Alpha virt. eigenvalues --    3.14000   3.14740   3.16303   3.17078   3.17865
 Alpha virt. eigenvalues --    3.18626   3.19980   3.20998   3.22486   3.22680
 Alpha virt. eigenvalues --    3.23272   3.25047   3.27131   3.28114   3.29305
 Alpha virt. eigenvalues --    3.31011   3.31542   3.32751   3.33786   3.35630
 Alpha virt. eigenvalues --    3.36168   3.37314   3.37374   3.39883   3.40791
 Alpha virt. eigenvalues --    3.41320   3.42715   3.43634   3.45132   3.47547
 Alpha virt. eigenvalues --    3.47898   3.48824   3.49544   3.50822   3.52194
 Alpha virt. eigenvalues --    3.52394   3.53885   3.54565   3.55482   3.56091
 Alpha virt. eigenvalues --    3.56820   3.59082   3.60713   3.61744   3.62382
 Alpha virt. eigenvalues --    3.62718   3.64148   3.64457   3.65588   3.66161
 Alpha virt. eigenvalues --    3.68303   3.69395   3.70181   3.71509   3.72957
 Alpha virt. eigenvalues --    3.73529   3.75392   3.76531   3.77387   3.77619
 Alpha virt. eigenvalues --    3.78255   3.79567   3.80936   3.83149   3.84422
 Alpha virt. eigenvalues --    3.84756   3.86121   3.87774   3.88642   3.89198
 Alpha virt. eigenvalues --    3.90334   3.90834   3.92945   3.93111   3.93557
 Alpha virt. eigenvalues --    3.96066   3.96386   3.97640   3.99336   3.99944
 Alpha virt. eigenvalues --    4.00664   4.01570   4.04195   4.04508   4.05104
 Alpha virt. eigenvalues --    4.06529   4.07215   4.08373   4.09121   4.10411
 Alpha virt. eigenvalues --    4.13373   4.14894   4.15391   4.16713   4.17040
 Alpha virt. eigenvalues --    4.18133   4.20969   4.23988   4.24532   4.25434
 Alpha virt. eigenvalues --    4.27948   4.29524   4.30451   4.32217   4.33228
 Alpha virt. eigenvalues --    4.35247   4.35634   4.36536   4.39222   4.40336
 Alpha virt. eigenvalues --    4.42568   4.43662   4.45235   4.45777   4.46451
 Alpha virt. eigenvalues --    4.48353   4.49839   4.51273   4.51583   4.55389
 Alpha virt. eigenvalues --    4.59021   4.59721   4.61433   4.63009   4.64433
 Alpha virt. eigenvalues --    4.64942   4.66255   4.66505   4.68682   4.70134
 Alpha virt. eigenvalues --    4.70674   4.72319   4.72899   4.76632   4.77278
 Alpha virt. eigenvalues --    4.78068   4.78540   4.80300   4.80732   4.82668
 Alpha virt. eigenvalues --    4.84869   4.88050   4.88568   4.89346   4.90945
 Alpha virt. eigenvalues --    4.91895   4.94065   4.98771   5.00362   5.01763
 Alpha virt. eigenvalues --    5.02295   5.04405   5.05187   5.07079   5.07312
 Alpha virt. eigenvalues --    5.10831   5.11367   5.14847   5.17214   5.20905
 Alpha virt. eigenvalues --    5.24847   5.25933   5.28148   5.29800   5.32832
 Alpha virt. eigenvalues --    5.38126   5.40307   5.41732   5.47415   5.53009
 Alpha virt. eigenvalues --    5.55711   5.58824   5.62446   5.64114   5.67251
 Alpha virt. eigenvalues --    5.76082   5.76816   5.80533   5.87423   5.88478
 Alpha virt. eigenvalues --    5.96680   6.01003   6.05920   6.11007   6.20487
 Alpha virt. eigenvalues --    6.23140   6.26310   6.26615   6.30258   6.31431
 Alpha virt. eigenvalues --    6.34470   6.40399   6.41774   6.46010   6.47835
 Alpha virt. eigenvalues --    6.48375   6.56140   6.58317   6.58817   6.62236
 Alpha virt. eigenvalues --    6.65896   6.68314   6.73674   6.75897   6.79539
 Alpha virt. eigenvalues --    6.81492   6.85345   6.85381   6.87377   6.90156
 Alpha virt. eigenvalues --    6.92046   6.94349   7.04778   7.07478   7.12331
 Alpha virt. eigenvalues --    7.12816   7.15430   7.18795   7.20452   7.22490
 Alpha virt. eigenvalues --    7.29562   7.36938   7.42165   7.52503   7.56138
 Alpha virt. eigenvalues --    7.69848   7.73859   7.89528   7.93337   8.09775
 Alpha virt. eigenvalues --   15.56863  15.63865  16.10481  17.05128  17.21416
 Alpha virt. eigenvalues --   17.74175  18.71787  19.14760  20.07680  20.50507
 Alpha virt. eigenvalues --   20.94795
          Condensed to atoms (all electrons):
               1          2          3          4          5          6
     1  C    8.087610   0.221155  -0.050316  -0.289560  -0.080276  -0.546848
     2  C    0.221155   6.419825   0.018118  -0.090868  -0.164135  -0.183088
     3  C   -0.050316   0.018118   6.398444  -0.004435  -0.070184  -0.285460
     4  C   -0.289560  -0.090868  -0.004435   7.144325  -0.137528   0.020800
     5  C   -0.080276  -0.164135  -0.070184  -0.137528   7.053364  -0.684851
     6  C   -0.546848  -0.183088  -0.285460   0.020800  -0.684851   7.135142
     7  C   -0.628300   0.066534   0.069280   0.152540  -0.425820  -0.463448
     8  O    0.060504  -0.041108   0.001008  -0.004995   0.029204  -0.211044
     9  O    0.018581  -0.008516   0.002894  -0.004278  -0.044597  -0.052605
    10  O    0.114722  -0.060319   0.078713  -0.292430  -0.078661  -0.381649
    11  C    0.026176  -0.009801   0.002134  -0.020456  -0.014588  -0.058683
    12  H    0.136272  -0.234723   0.061491  -0.015791   0.005663  -0.070341
    13  H   -0.214748   0.458802  -0.181250   0.045325  -0.044083  -0.007030
    14  H    0.044921  -0.134108   0.380098  -0.194504   0.055531  -0.038427
    15  H   -0.009424   0.034334  -0.263101   0.450254  -0.300433  -0.020727
    16  H   -0.014791   0.002933  -0.000530   0.001096  -0.016230   0.001997
    17  H   -0.003342   0.001851  -0.004536  -0.024146   0.029922  -0.014091
    18  H    0.004681  -0.002815   0.001658   0.026075  -0.024319   0.013730
    19  H    0.001492   0.001349   0.000710  -0.018706   0.014130  -0.003560
               7          8          9         10         11         12
     1  C   -0.628300   0.060504   0.018581   0.114722   0.026176   0.136272
     2  C    0.066534  -0.041108  -0.008516  -0.060319  -0.009801  -0.234723
     3  C    0.069280   0.001008   0.002894   0.078713   0.002134   0.061491
     4  C    0.152540  -0.004995  -0.004278  -0.292430  -0.020456  -0.015791
     5  C   -0.425820   0.029204  -0.044597  -0.078661  -0.014588   0.005663
     6  C   -0.463448  -0.211044  -0.052605  -0.381649  -0.058683  -0.070341
     7  C    7.009469   0.010966   0.058962   0.033574  -0.047971   0.123279
     8  O    0.010966   9.395970  -0.141324  -0.007187   0.003956  -0.040449
     9  O    0.058962  -0.141324   8.580652  -0.101797   0.033204   0.001001
    10  O    0.033574  -0.007187  -0.101797   9.375612   0.148400  -0.003319
    11  C   -0.047971   0.003956   0.033204   0.148400   5.793425  -0.000435
    12  H    0.123279  -0.040449   0.001001  -0.003319  -0.000435   0.764806
    13  H    0.009320  -0.003764  -0.000416   0.000765  -0.000213  -0.044241
    14  H   -0.010767   0.000512   0.000307  -0.001202   0.001723  -0.006866
    15  H    0.003101   0.000567   0.001815  -0.093705  -0.016993   0.004543
    16  H    0.066120  -0.097112   0.154924   0.012956  -0.008267   0.000493
    17  H    0.006158  -0.000275   0.000481  -0.030912   0.377206  -0.000172
    18  H   -0.004962  -0.000017   0.003709  -0.038312   0.392203   0.000167
    19  H   -0.020258   0.001444   0.003365  -0.006434   0.341388  -0.000489
              13         14         15         16         17         18
     1  C   -0.214748   0.044921  -0.009424  -0.014791  -0.003342   0.004681
     2  C    0.458802  -0.134108   0.034334   0.002933   0.001851  -0.002815
     3  C   -0.181250   0.380098  -0.263101  -0.000530  -0.004536   0.001658
     4  C    0.045325  -0.194504   0.450254   0.001096  -0.024146   0.026075
     5  C   -0.044083   0.055531  -0.300433  -0.016230   0.029922  -0.024319
     6  C   -0.007030  -0.038427  -0.020727   0.001997  -0.014091   0.013730
     7  C    0.009320  -0.010767   0.003101   0.066120   0.006158  -0.004962
     8  O   -0.003764   0.000512   0.000567  -0.097112  -0.000275  -0.000017
     9  O   -0.000416   0.000307   0.001815   0.154924   0.000481   0.003709
    10  O    0.000765  -0.001202  -0.093705   0.012956  -0.030912  -0.038312
    11  C   -0.000213   0.001723  -0.016993  -0.008267   0.377206   0.392203
    12  H   -0.044241  -0.006866   0.004543   0.000493  -0.000172   0.000167
    13  H    0.770779  -0.001289  -0.017393   0.000212   0.000031  -0.000140
    14  H   -0.001289   0.592846   0.000353  -0.000097   0.000050   0.000296
    15  H   -0.017393   0.000353   0.941532  -0.000148  -0.017774   0.005295
    16  H    0.000212  -0.000097  -0.000148   0.635188  -0.000024  -0.000867
    17  H    0.000031   0.000050  -0.017774  -0.000024   0.372274  -0.016315
    18  H   -0.000140   0.000296   0.005295  -0.000867  -0.016315   0.338209
    19  H    0.000509  -0.000256  -0.006359  -0.001843   0.020276  -0.014924
              19
     1  C    0.001492
     2  C    0.001349
     3  C    0.000710
     4  C   -0.018706
     5  C    0.014130
     6  C   -0.003560
     7  C   -0.020258
     8  O    0.001444
     9  O    0.003365
    10  O   -0.006434
    11  C    0.341388
    12  H   -0.000489
    13  H    0.000509
    14  H   -0.000256
    15  H   -0.006359
    16  H   -0.001843
    17  H    0.020276
    18  H   -0.014924
    19  H    0.329681
 Mulliken charges:
               1
     1  C   -0.878509
     2  C   -0.295419
     3  C   -0.154736
     4  C   -0.742718
     5  C    0.897893
     6  C    1.850183
     7  C   -0.007777
     8  O   -0.956858
     9  O   -0.506362
    10  O   -0.668816
    11  C   -0.942409
    12  H    0.319110
    13  H    0.228822
    14  H    0.310879
    15  H    0.304263
    16  H    0.263988
    17  H    0.303339
    18  H    0.316647
    19  H    0.358481
 Sum of Mulliken charges =   0.00000
 Mulliken charges with hydrogens summed into heavy atoms:
               1
     1  C   -0.559400
     2  C   -0.066597
     3  C    0.156143
     4  C   -0.438455
     5  C    0.897893
     6  C    1.850183
     7  C   -0.007777
     8  O   -0.956858
     9  O   -0.242374
    10  O   -0.668816
    11  C    0.036058
 Electronic spatial extent (au):  <R**2>=           1588.6232
 Charge=              0.0000 electrons
 Dipole moment (field-independent basis, Debye):
    X=              1.8662    Y=              2.0654    Z=              0.9811  Tot=              2.9515
 Quadrupole moment (field-independent basis, Debye-Ang):
   XX=            -53.8332   YY=            -64.6576   ZZ=            -65.7769
   XY=             -3.5385   XZ=             -0.7595   YZ=              2.4735
 Traceless Quadrupole moment (field-independent basis, Debye-Ang):
   XX=              7.5894   YY=             -3.2350   ZZ=             -4.3543
   XY=             -3.5385   XZ=             -0.7595   YZ=              2.4735
 Octapole moment (field-independent basis, Debye-Ang**2):
  XXX=            -23.4873  YYY=             27.8378  ZZZ=             -1.8708  XYY=              9.1332
  XXY=             -0.1649  XXZ=             -1.0051  XZZ=            -10.3853  YZZ=             -0.8528
  YYZ=              3.5957  XYZ=             -6.3512
 Hexadecapole moment (field-independent basis, Debye-Ang**3):
 XXXX=           -882.3917 YYYY=           -878.1087 ZZZZ=           -112.6566 XXXY=             24.8582
 XXXZ=              9.3919 YYYX=            -53.4521 YYYZ=              3.5624 ZZZX=              0.7442
 ZZZY=             -1.1251 XXYY=           -318.3118 XXZZ=           -209.8192 YYZZ=           -171.6778
 XXYZ=             -1.3542 YYXZ=              2.5848 ZZXY=              5.3836
 N-N= 6.123740837861D+02 E-N=-2.476230393890D+03  KE= 5.334122756013D+02
 ******************************Gaussian NBO Version 3.1******************************
             N A T U R A L   A T O M I C   O R B I T A L   A N D
          N A T U R A L   B O N D   O R B I T A L   A N A L Y S I S
 ******************************Gaussian NBO Version 3.1******************************
       /RESON  / : Allow strongly delocalized NBO set

 Analyzing the SCF density

 Job title: o-OMe                                                           

 Storage needed:   1431180 in NPA,   1906877 in NBO (********** available)
 GSVD:  LWork=       47370 too small for GESVD, short by      805941 words or      805941 for optimal perf.


 NATURAL POPULATIONS:  Natural atomic orbital occupancies 
                                                          
   NAO  Atom  No  lang   Type(AO)    Occupancy      Energy
 ----------------------------------------------------------
     1    C    1  S      Cor( 1S)     1.99910     -10.38654
     2    C    1  S      Val( 2S)     0.94137      -0.18263
     3    C    1  S      Ryd( 4S)     0.00157       1.94360
     4    C    1  S      Ryd( 5S)     0.00013       2.82948
     5    C    1  S      Ryd( 3S)     0.00002       1.87432
     6    C    1  px     Val( 2p)     1.04631      -0.05820
     7    C    1  px     Ryd( 4p)     0.00368       1.95872
     8    C    1  px     Ryd( 5p)     0.00008       2.68741
     9    C    1  px     Ryd( 3p)     0.00005       0.84347
    10    C    1  py     Val( 2p)     1.16744      -0.08026
    11    C    1  py     Ryd( 4p)     0.00489       1.82706
    12    C    1  py     Ryd( 5p)     0.00007       2.83957
    13    C    1  py     Ryd( 3p)     0.00006       0.92151
    14    C    1  pz     Val( 2p)     0.93973      -0.11880
    15    C    1  pz     Ryd( 4p)     0.00084       1.07086
    16    C    1  pz     Ryd( 5p)     0.00005       1.74737
    17    C    1  pz     Ryd( 3p)     0.00003       0.64613
    18    C    1  dxy    Ryd( 4d)     0.00194       3.71926
    19    C    1  dxy    Ryd( 5d)     0.00022       4.16413
    20    C    1  dxy    Ryd( 3d)     0.00006       2.41501
    21    C    1  dxz    Ryd( 3d)     0.00053       1.56286
    22    C    1  dxz    Ryd( 5d)     0.00004       3.20310
    23    C    1  dxz    Ryd( 4d)     0.00002       2.02274
    24    C    1  dyz    Ryd( 3d)     0.00038       1.53700
    25    C    1  dyz    Ryd( 5d)     0.00005       3.33206
    26    C    1  dyz    Ryd( 4d)     0.00005       1.71599
    27    C    1  dx2y2  Ryd( 3d)     0.00188       2.59485
    28    C    1  dx2y2  Ryd( 5d)     0.00014       3.95447
    29    C    1  dx2y2  Ryd( 4d)     0.00008       3.71915
    30    C    1  dz2    Ryd( 3d)     0.00090       1.82719
    31    C    1  dz2    Ryd( 4d)     0.00008       3.99462
    32    C    1  dz2    Ryd( 5d)     0.00008       4.06611
    33    C    1  f(0)   Ryd( 4f)     0.00017       1.60473
    34    C    1  f(0)   Ryd( 5f)     0.00010       3.40646
    35    C    1  f(C1)  Ryd( 4f)     0.00040       2.03925
    36    C    1  f(C1)  Ryd( 5f)     0.00024       3.63701
    37    C    1  f(S1)  Ryd( 4f)     0.00047       1.74142
    38    C    1  f(S1)  Ryd( 5f)     0.00009       3.51058
    39    C    1  f(C2)  Ryd( 4f)     0.00022       1.76217
    40    C    1  f(C2)  Ryd( 5f)     0.00006       3.45826
    41    C    1  f(S2)  Ryd( 4f)     0.00023       1.52402
    42    C    1  f(S2)  Ryd( 5f)     0.00003       3.47038
    43    C    1  f(C3)  Ryd( 4f)     0.00077       2.39200
    44    C    1  f(C3)  Ryd( 5f)     0.00019       4.14364
    45    C    1  f(S3)  Ryd( 4f)     0.00069       2.50471
    46    C    1  f(S3)  Ryd( 5f)     0.00013       4.04666
 
    47    C    2  S      Cor( 1S)     1.99910     -10.37671
    48    C    2  S      Val( 2S)     0.94437      -0.18951
    49    C    2  S      Ryd( 4S)     0.00136       1.90479
    50    C    2  S      Ryd( 5S)     0.00006       2.95700
    51    C    2  S      Ryd( 3S)     0.00002       1.87622
    52    C    2  px     Val( 2p)     1.12785      -0.08040
    53    C    2  px     Ryd( 5p)     0.00454       1.71665
    54    C    2  px     Ryd( 4p)     0.00004       1.42829
    55    C    2  px     Ryd( 3p)     0.00001       1.42752
    56    C    2  py     Val( 2p)     1.11698      -0.08127
    57    C    2  py     Ryd( 5p)     0.00408       1.70747
    58    C    2  py     Ryd( 4p)     0.00003       1.48589
    59    C    2  py     Ryd( 3p)     0.00002       1.43246
    60    C    2  pz     Val( 2p)     1.01467      -0.12483
    61    C    2  pz     Ryd( 3p)     0.00095       1.04680
    62    C    2  pz     Ryd( 5p)     0.00000       1.18773
    63    C    2  pz     Ryd( 4p)     0.00002       1.06553
    64    C    2  dxy    Ryd( 3d)     0.00179       2.32236
    65    C    2  dxy    Ryd( 5d)     0.00017       3.46565
    66    C    2  dxy    Ryd( 4d)     0.00005       2.94492
    67    C    2  dxz    Ryd( 3d)     0.00034       1.51592
    68    C    2  dxz    Ryd( 5d)     0.00003       2.79720
    69    C    2  dxz    Ryd( 4d)     0.00002       1.73162
    70    C    2  dyz    Ryd( 3d)     0.00047       1.60449
    71    C    2  dyz    Ryd( 5d)     0.00004       2.90255
    72    C    2  dyz    Ryd( 4d)     0.00004       2.06486
    73    C    2  dx2y2  Ryd( 4d)     0.00205       3.26601
    74    C    2  dx2y2  Ryd( 5d)     0.00025       3.46041
    75    C    2  dx2y2  Ryd( 3d)     0.00004       2.18183
    76    C    2  dz2    Ryd( 3d)     0.00098       1.80167
    77    C    2  dz2    Ryd( 5d)     0.00009       3.95854
    78    C    2  dz2    Ryd( 4d)     0.00009       3.11455
    79    C    2  f(0)   Ryd( 5f)     0.00014       3.54600
    80    C    2  f(0)   Ryd( 4f)     0.00001       2.32574
    81    C    2  f(C1)  Ryd( 5f)     0.00017       3.72534
    82    C    2  f(C1)  Ryd( 4f)     0.00002       2.62815
    83    C    2  f(S1)  Ryd( 5f)     0.00021       3.68486
    84    C    2  f(S1)  Ryd( 4f)     0.00001       2.76924
    85    C    2  f(C2)  Ryd( 5f)     0.00003       3.61782
    86    C    2  f(C2)  Ryd( 4f)     0.00001       2.62471
    87    C    2  f(S2)  Ryd( 5f)     0.00003       3.74360
    88    C    2  f(S2)  Ryd( 4f)     0.00001       2.33697
    89    C    2  f(C3)  Ryd( 4f)     0.00009       4.28231
    90    C    2  f(C3)  Ryd( 5f)     0.00009       4.56205
    91    C    2  f(S3)  Ryd( 4f)     0.00012       4.27403
    92    C    2  f(S3)  Ryd( 5f)     0.00006       4.80167
 
    93    C    3  S      Cor( 1S)     1.99909     -10.38556
    94    C    3  S      Val( 2S)     0.94794      -0.19813
    95    C    3  S      Ryd( 4S)     0.00133       1.96457
    96    C    3  S      Ryd( 5S)     0.00006       2.83781
    97    C    3  S      Ryd( 3S)     0.00002       1.77759
    98    C    3  px     Val( 2p)     1.17014      -0.08853
    99    C    3  px     Ryd( 4p)     0.00521       1.71124
   100    C    3  px     Ryd( 5p)     0.00003       1.74075
   101    C    3  px     Ryd( 3p)     0.00003       1.53832
   102    C    3  py     Val( 2p)     1.06918      -0.07443
   103    C    3  py     Ryd( 5p)     0.00389       1.71825
   104    C    3  py     Ryd( 3p)     0.00004       1.25700
   105    C    3  py     Ryd( 4p)     0.00002       1.28292
   106    C    3  pz     Val( 2p)     0.95569      -0.12362
   107    C    3  pz     Ryd( 3p)     0.00076       1.05435
   108    C    3  pz     Ryd( 5p)     0.00001       1.19113
   109    C    3  pz     Ryd( 4p)     0.00002       1.07227
   110    C    3  dxy    Ryd( 4d)     0.00207       3.20430
   111    C    3  dxy    Ryd( 5d)     0.00019       3.72170
   112    C    3  dxy    Ryd( 3d)     0.00004       2.05581
   113    C    3  dxz    Ryd( 4d)     0.00039       1.59359
   114    C    3  dxz    Ryd( 5d)     0.00005       2.97204
   115    C    3  dxz    Ryd( 3d)     0.00002       1.48852
   116    C    3  dyz    Ryd( 3d)     0.00074       1.61329
   117    C    3  dyz    Ryd( 5d)     0.00003       3.04496
   118    C    3  dyz    Ryd( 4d)     0.00002       2.10575
   119    C    3  dx2y2  Ryd( 4d)     0.00189       2.63057
   120    C    3  dx2y2  Ryd( 5d)     0.00021       3.57376
   121    C    3  dx2y2  Ryd( 3d)     0.00006       2.51684
   122    C    3  dz2    Ryd( 3d)     0.00092       1.86699
   123    C    3  dz2    Ryd( 5d)     0.00004       3.97832
   124    C    3  dz2    Ryd( 4d)     0.00009       2.93499
   125    C    3  f(0)   Ryd( 5f)     0.00013       3.55635
   126    C    3  f(0)   Ryd( 4f)     0.00001       2.32951
   127    C    3  f(C1)  Ryd( 5f)     0.00014       3.69896
   128    C    3  f(C1)  Ryd( 4f)     0.00002       2.62816
   129    C    3  f(S1)  Ryd( 5f)     0.00022       3.69419
   130    C    3  f(S1)  Ryd( 4f)     0.00002       2.76492
   131    C    3  f(C2)  Ryd( 5f)     0.00004       3.72154
   132    C    3  f(C2)  Ryd( 4f)     0.00002       2.49670
   133    C    3  f(S2)  Ryd( 5f)     0.00004       3.67122
   134    C    3  f(S2)  Ryd( 4f)     0.00001       2.54023
   135    C    3  f(C3)  Ryd( 4f)     0.00011       4.30651
   136    C    3  f(C3)  Ryd( 5f)     0.00006       4.60168
   137    C    3  f(S3)  Ryd( 4f)     0.00009       4.30182
   138    C    3  f(S3)  Ryd( 5f)     0.00007       4.79158
 
   139    C    4  S      Cor( 1S)     1.99902     -10.37902
   140    C    4  S      Val( 2S)     0.95227      -0.19143
   141    C    4  S      Ryd( 4S)     0.00175       1.91242
   142    C    4  S      Ryd( 5S)     0.00011       2.85641
   143    C    4  S      Ryd( 3S)     0.00002       1.68082
   144    C    4  px     Val( 2p)     1.07941      -0.07910
   145    C    4  px     Ryd( 4p)     0.00360       1.93210
   146    C    4  px     Ryd( 5p)     0.00006       2.35306
   147    C    4  px     Ryd( 3p)     0.00001       0.84267
   148    C    4  py     Val( 2p)     1.17347      -0.09558
   149    C    4  py     Ryd( 4p)     0.00482       1.82645
   150    C    4  py     Ryd( 5p)     0.00007       2.37138
   151    C    4  py     Ryd( 3p)     0.00005       0.99001
   152    C    4  pz     Val( 2p)     1.02545      -0.12823
   153    C    4  pz     Ryd( 4p)     0.00085       1.07053
   154    C    4  pz     Ryd( 5p)     0.00005       1.62850
   155    C    4  pz     Ryd( 3p)     0.00004       0.72305
   156    C    4  dxy    Ryd( 4d)     0.00202       3.14653
   157    C    4  dxy    Ryd( 5d)     0.00013       4.21481
   158    C    4  dxy    Ryd( 3d)     0.00010       2.41587
   159    C    4  dxz    Ryd( 3d)     0.00040       1.57423
   160    C    4  dxz    Ryd( 5d)     0.00004       3.32615
   161    C    4  dxz    Ryd( 4d)     0.00002       1.71737
   162    C    4  dyz    Ryd( 3d)     0.00052       1.49005
   163    C    4  dyz    Ryd( 5d)     0.00005       3.43761
   164    C    4  dyz    Ryd( 4d)     0.00005       1.74131
   165    C    4  dx2y2  Ryd( 3d)     0.00206       2.68452
   166    C    4  dx2y2  Ryd( 5d)     0.00012       4.10266
   167    C    4  dx2y2  Ryd( 4d)     0.00006       2.85836
   168    C    4  dz2    Ryd( 3d)     0.00115       1.73095
   169    C    4  dz2    Ryd( 5d)     0.00008       4.11610
   170    C    4  dz2    Ryd( 4d)     0.00006       4.08677
   171    C    4  f(0)   Ryd( 4f)     0.00032       1.86264
   172    C    4  f(0)   Ryd( 5f)     0.00010       3.19984
   173    C    4  f(C1)  Ryd( 4f)     0.00044       2.18260
   174    C    4  f(C1)  Ryd( 5f)     0.00018       3.37206
   175    C    4  f(S1)  Ryd( 4f)     0.00052       1.96860
   176    C    4  f(S1)  Ryd( 5f)     0.00005       3.26487
   177    C    4  f(C2)  Ryd( 4f)     0.00018       1.88284
   178    C    4  f(C2)  Ryd( 5f)     0.00009       3.18522
   179    C    4  f(S2)  Ryd( 4f)     0.00018       2.00899
   180    C    4  f(S2)  Ryd( 5f)     0.00007       3.17058
   181    C    4  f(C3)  Ryd( 4f)     0.00059       2.57507
   182    C    4  f(C3)  Ryd( 5f)     0.00021       3.71095
   183    C    4  f(S3)  Ryd( 4f)     0.00064       2.67332
   184    C    4  f(S3)  Ryd( 5f)     0.00021       3.80724
 
   185    C    5  S      Cor( 1S)     1.99862     -10.45866
   186    C    5  S      Val( 2S)     0.82551      -0.11545
   187    C    5  S      Ryd( 4S)     0.00126       2.15560
   188    C    5  S      Ryd( 5S)     0.00009       2.31905
   189    C    5  S      Ryd( 3S)     0.00002       2.09274
   190    C    5  px     Val( 2p)     0.93592      -0.06247
   191    C    5  px     Ryd( 4p)     0.00436       1.87302
   192    C    5  px     Ryd( 5p)     0.00008       2.99674
   193    C    5  px     Ryd( 3p)     0.00003       0.85220
   194    C    5  py     Val( 2p)     0.90900      -0.04242
   195    C    5  py     Ryd( 4p)     0.00408       1.87895
   196    C    5  py     Ryd( 5p)     0.00009       2.61596
   197    C    5  py     Ryd( 3p)     0.00002       0.78154
   198    C    5  pz     Val( 2p)     0.93845      -0.12640
   199    C    5  pz     Ryd( 4p)     0.00283       1.02113
   200    C    5  pz     Ryd( 5p)     0.00014       1.86062
   201    C    5  pz     Ryd( 3p)     0.00004       0.65462
   202    C    5  dxy    Ryd( 3d)     0.00091       3.06820
   203    C    5  dxy    Ryd( 4d)     0.00035       3.61861
   204    C    5  dxy    Ryd( 5d)     0.00007       5.06534
   205    C    5  dxz    Ryd( 3d)     0.00072       1.75720
   206    C    5  dxz    Ryd( 4d)     0.00024       2.63448
   207    C    5  dxz    Ryd( 5d)     0.00002       2.94196
   208    C    5  dyz    Ryd( 3d)     0.00077       1.83068
   209    C    5  dyz    Ryd( 4d)     0.00022       2.69324
   210    C    5  dyz    Ryd( 5d)     0.00006       3.03742
   211    C    5  dx2y2  Ryd( 4d)     0.00109       3.74236
   212    C    5  dx2y2  Ryd( 3d)     0.00048       3.67182
   213    C    5  dx2y2  Ryd( 5d)     0.00005       5.09940
   214    C    5  dz2    Ryd( 3d)     0.00091       2.13195
   215    C    5  dz2    Ryd( 4d)     0.00042       3.30942
   216    C    5  dz2    Ryd( 5d)     0.00006       4.09560
   217    C    5  f(0)   Ryd( 4f)     0.00010       1.61859
   218    C    5  f(0)   Ryd( 5f)     0.00021       3.77148
   219    C    5  f(C1)  Ryd( 4f)     0.00037       1.85111
   220    C    5  f(C1)  Ryd( 5f)     0.00022       3.86642
   221    C    5  f(S1)  Ryd( 4f)     0.00041       1.84136
   222    C    5  f(S1)  Ryd( 5f)     0.00021       3.87064
   223    C    5  f(C2)  Ryd( 4f)     0.00077       1.55841
   224    C    5  f(C2)  Ryd( 5f)     0.00003       3.85311
   225    C    5  f(S2)  Ryd( 4f)     0.00033       1.51413
   226    C    5  f(S2)  Ryd( 5f)     0.00003       3.88997
   227    C    5  f(C3)  Ryd( 4f)     0.00163       2.83538
   228    C    5  f(C3)  Ryd( 5f)     0.00008       4.70285
   229    C    5  f(S3)  Ryd( 4f)     0.00131       2.90303
   230    C    5  f(S3)  Ryd( 5f)     0.00011       4.73921
 
   231    C    6  S      Cor( 1S)     1.99874     -10.37673
   232    C    6  S      Val( 2S)     0.89477      -0.11830
   233    C    6  S      Ryd( 3S)     0.00107       2.07908
   234    C    6  S      Ryd( 4S)     0.00009       2.55873
   235    C    6  S      Ryd( 5S)     0.00002       3.18915
   236    C    6  px     Val( 2p)     1.11399      -0.11557
   237    C    6  px     Ryd( 4p)     0.00550       2.49631
   238    C    6  px     Ryd( 5p)     0.00006       2.91973
   239    C    6  px     Ryd( 3p)     0.00004       0.98791
   240    C    6  py     Val( 2p)     1.13570      -0.11243
   241    C    6  py     Ryd( 4p)     0.00488       2.34006
   242    C    6  py     Ryd( 5p)     0.00008       2.94726
   243    C    6  py     Ryd( 3p)     0.00003       0.70816
   244    C    6  pz     Val( 2p)     1.09212      -0.13958
   245    C    6  pz     Ryd( 4p)     0.00135       1.07135
   246    C    6  pz     Ryd( 5p)     0.00014       2.15131
   247    C    6  pz     Ryd( 3p)     0.00002       0.59794
   248    C    6  dxy    Ryd( 3d)     0.00091       3.17034
   249    C    6  dxy    Ryd( 4d)     0.00024       3.90501
   250    C    6  dxy    Ryd( 5d)     0.00007       5.44435
   251    C    6  dxz    Ryd( 3d)     0.00017       1.58918
   252    C    6  dxz    Ryd( 5d)     0.00012       3.03123
   253    C    6  dxz    Ryd( 4d)     0.00003       2.70909
   254    C    6  dyz    Ryd( 3d)     0.00052       1.57551
   255    C    6  dyz    Ryd( 5d)     0.00006       3.04492
   256    C    6  dyz    Ryd( 4d)     0.00003       2.91955
   257    C    6  dx2y2  Ryd( 3d)     0.00177       3.01429
   258    C    6  dx2y2  Ryd( 4d)     0.00020       3.74392
   259    C    6  dx2y2  Ryd( 5d)     0.00002       5.54454
   260    C    6  dz2    Ryd( 3d)     0.00084       1.63025
   261    C    6  dz2    Ryd( 4d)     0.00019       3.82086
   262    C    6  dz2    Ryd( 5d)     0.00003       4.35263
   263    C    6  f(0)   Ryd( 4f)     0.00060       1.78764
   264    C    6  f(0)   Ryd( 5f)     0.00028       3.50838
   265    C    6  f(C1)  Ryd( 4f)     0.00049       2.11666
   266    C    6  f(C1)  Ryd( 5f)     0.00036       3.61486
   267    C    6  f(S1)  Ryd( 4f)     0.00055       2.12552
   268    C    6  f(S1)  Ryd( 5f)     0.00032       3.69341
   269    C    6  f(C2)  Ryd( 4f)     0.00066       1.70086
   270    C    6  f(C2)  Ryd( 5f)     0.00008       3.46480
   271    C    6  f(S2)  Ryd( 4f)     0.00053       1.73339
   272    C    6  f(S2)  Ryd( 5f)     0.00006       3.50335
   273    C    6  f(C3)  Ryd( 4f)     0.00169       2.94042
   274    C    6  f(C3)  Ryd( 5f)     0.00019       4.50082
   275    C    6  f(S3)  Ryd( 4f)     0.00125       3.12322
   276    C    6  f(S3)  Ryd( 5f)     0.00016       4.63166
 
   277    C    7  S      Cor( 1S)     1.99912     -10.53252
   278    C    7  S      Val( 2S)     0.77836      -0.09862
   279    C    7  S      Ryd( 4S)     0.00399       1.99818
   280    C    7  S      Ryd( 5S)     0.00010       2.19928
   281    C    7  S      Ryd( 3S)     0.00004       1.98007
   282    C    7  px     Val( 2p)     0.87896      -0.04077
   283    C    7  px     Ryd( 5p)     0.00446       1.69092
   284    C    7  px     Ryd( 4p)     0.00022       1.52510
   285    C    7  px     Ryd( 3p)     0.00001       1.40849
   286    C    7  py     Val( 2p)     0.76085      -0.02205
   287    C    7  py     Ryd( 4p)     0.01362       1.61121
   288    C    7  py     Ryd( 3p)     0.00011       1.32938
   289    C    7  py     Ryd( 5p)     0.00004       1.64344
   290    C    7  pz     Val( 2p)     0.75546      -0.11789
   291    C    7  pz     Ryd( 5p)     0.00087       1.18055
   292    C    7  pz     Ryd( 3p)     0.00012       0.85590
   293    C    7  pz     Ryd( 4p)     0.00004       1.10073
   294    C    7  dxy    Ryd( 4d)     0.00156       3.28095
   295    C    7  dxy    Ryd( 3d)     0.00029       2.54474
   296    C    7  dxy    Ryd( 5d)     0.00005       3.73552
   297    C    7  dxz    Ryd( 4d)     0.00112       2.36012
   298    C    7  dxz    Ryd( 3d)     0.00006       1.85885
   299    C    7  dxz    Ryd( 5d)     0.00006       2.74723
   300    C    7  dyz    Ryd( 4d)     0.00140       2.54311
   301    C    7  dyz    Ryd( 3d)     0.00012       2.09144
   302    C    7  dyz    Ryd( 5d)     0.00006       2.80519
   303    C    7  dx2y2  Ryd( 4d)     0.00121       3.20141
   304    C    7  dx2y2  Ryd( 3d)     0.00020       2.53784
   305    C    7  dx2y2  Ryd( 5d)     0.00009       3.79876
   306    C    7  dz2    Ryd( 4d)     0.00043       3.13821
   307    C    7  dz2    Ryd( 3d)     0.00046       2.79614
   308    C    7  dz2    Ryd( 5d)     0.00010       3.63024
   309    C    7  f(0)   Ryd( 4f)     0.00015       1.54256
   310    C    7  f(0)   Ryd( 5f)     0.00011       3.77208
   311    C    7  f(C1)  Ryd( 4f)     0.00037       1.67963
   312    C    7  f(C1)  Ryd( 5f)     0.00015       3.86014
   313    C    7  f(S1)  Ryd( 4f)     0.00033       1.69765
   314    C    7  f(S1)  Ryd( 5f)     0.00008       3.80845
   315    C    7  f(C2)  Ryd( 4f)     0.00087       1.51030
   316    C    7  f(C2)  Ryd( 5f)     0.00002       3.77174
   317    C    7  f(S2)  Ryd( 4f)     0.00051       1.62926
   318    C    7  f(S2)  Ryd( 5f)     0.00003       3.82728
   319    C    7  f(C3)  Ryd( 4f)     0.00187       2.47988
   320    C    7  f(C3)  Ryd( 5f)     0.00008       4.83449
   321    C    7  f(S3)  Ryd( 4f)     0.00090       2.63019
   322    C    7  f(S3)  Ryd( 5f)     0.00006       4.83488
 
   323    O    8  S      Cor( 1S)     1.99979     -19.31667
   324    O    8  S      Val( 2S)     1.70659      -0.99276
   325    O    8  S      Ryd( 4S)     0.00043       3.05989
   326    O    8  S      Ryd( 3S)     0.00019       1.42648
   327    O    8  S      Ryd( 5S)     0.00002      10.06181
   328    O    8  px     Val( 2p)     1.84687      -0.33345
   329    O    8  px     Ryd( 3p)     0.00174       1.40923
   330    O    8  px     Ryd( 4p)     0.00010       1.55281
   331    O    8  px     Ryd( 5p)     0.00004       4.07522
   332    O    8  py     Val( 2p)     1.56677      -0.32564
   333    O    8  py     Ryd( 4p)     0.00093       1.86918
   334    O    8  py     Ryd( 3p)     0.00010       1.59448
   335    O    8  py     Ryd( 5p)     0.00006       4.39355
   336    O    8  pz     Val( 2p)     1.46865      -0.28399
   337    O    8  pz     Ryd( 4p)     0.00074       1.20278
   338    O    8  pz     Ryd( 3p)     0.00001       1.12278
   339    O    8  pz     Ryd( 5p)     0.00001       3.60090
   340    O    8  dxy    Ryd( 3d)     0.00606       2.01606
   341    O    8  dxy    Ryd( 4d)     0.00012       2.98700
   342    O    8  dxy    Ryd( 5d)     0.00005       6.19242
   343    O    8  dxz    Ryd( 3d)     0.00070       1.56073
   344    O    8  dxz    Ryd( 4d)     0.00002       1.94133
   345    O    8  dxz    Ryd( 5d)     0.00001       6.22556
   346    O    8  dyz    Ryd( 3d)     0.00670       1.66272
   347    O    8  dyz    Ryd( 4d)     0.00005       2.29647
   348    O    8  dyz    Ryd( 5d)     0.00002       6.10128
   349    O    8  dx2y2  Ryd( 3d)     0.00729       2.04863
   350    O    8  dx2y2  Ryd( 4d)     0.00012       3.57542
   351    O    8  dx2y2  Ryd( 5d)     0.00001       6.30961
   352    O    8  dz2    Ryd( 3d)     0.00299       1.73378
   353    O    8  dz2    Ryd( 4d)     0.00008       2.93147
   354    O    8  dz2    Ryd( 5d)     0.00001       6.28196
   355    O    8  f(0)   Ryd( 4f)     0.00011       3.39955
   356    O    8  f(0)   Ryd( 5f)     0.00000       5.49002
   357    O    8  f(C1)  Ryd( 4f)     0.00004       3.35725
   358    O    8  f(C1)  Ryd( 5f)     0.00001       5.53758
   359    O    8  f(S1)  Ryd( 4f)     0.00018       3.94012
   360    O    8  f(S1)  Ryd( 5f)     0.00001       5.80023
   361    O    8  f(C2)  Ryd( 4f)     0.00022       3.46015
   362    O    8  f(C2)  Ryd( 5f)     0.00001       5.61985
   363    O    8  f(S2)  Ryd( 4f)     0.00012       3.35827
   364    O    8  f(S2)  Ryd( 5f)     0.00001       5.77343
   365    O    8  f(C3)  Ryd( 4f)     0.00036       4.09906
   366    O    8  f(C3)  Ryd( 5f)     0.00002       5.99260
   367    O    8  f(S3)  Ryd( 4f)     0.00031       3.95424
   368    O    8  f(S3)  Ryd( 5f)     0.00002       5.95633
 
   369    O    9  S      Cor( 1S)     1.99978     -19.44539
   370    O    9  S      Val( 2S)     1.67692      -1.02220
   371    O    9  S      Ryd( 4S)     0.00026       2.21820
   372    O    9  S      Ryd( 3S)     0.00012       2.14515
   373    O    9  S      Ryd( 5S)     0.00002      10.47456
   374    O    9  px     Val( 2p)     1.40630      -0.33925
   375    O    9  px     Ryd( 4p)     0.00080       1.30259
   376    O    9  px     Ryd( 3p)     0.00010       0.79080
   377    O    9  px     Ryd( 5p)     0.00004       5.33075
   378    O    9  py     Val( 2p)     1.74961      -0.39487
   379    O    9  py     Ryd( 4p)     0.00103       1.20996
   380    O    9  py     Ryd( 3p)     0.00009       0.99377
   381    O    9  py     Ryd( 5p)     0.00009       4.96369
   382    O    9  pz     Val( 2p)     1.83651      -0.39903
   383    O    9  pz     Ryd( 4p)     0.00113       0.94180
   384    O    9  pz     Ryd( 3p)     0.00002       0.69839
   385    O    9  pz     Ryd( 5p)     0.00001       4.10845
   386    O    9  dxy    Ryd( 3d)     0.00710       2.17615
   387    O    9  dxy    Ryd( 4d)     0.00008       2.56168
   388    O    9  dxy    Ryd( 5d)     0.00005       7.08265
   389    O    9  dxz    Ryd( 3d)     0.00033       1.34518
   390    O    9  dxz    Ryd( 4d)     0.00007       1.88579
   391    O    9  dxz    Ryd( 5d)     0.00002       6.67863
   392    O    9  dyz    Ryd( 3d)     0.00499       1.35994
   393    O    9  dyz    Ryd( 4d)     0.00003       1.85483
   394    O    9  dyz    Ryd( 5d)     0.00002       6.67116
   395    O    9  dx2y2  Ryd( 3d)     0.00286       1.75341
   396    O    9  dx2y2  Ryd( 4d)     0.00010       2.22311
   397    O    9  dx2y2  Ryd( 5d)     0.00004       6.89479
   398    O    9  dz2    Ryd( 3d)     0.00313       1.58043
   399    O    9  dz2    Ryd( 4d)     0.00017       2.19893
   400    O    9  dz2    Ryd( 5d)     0.00001       6.93973
   401    O    9  f(0)   Ryd( 4f)     0.00040       3.09991
   402    O    9  f(0)   Ryd( 5f)     0.00001       5.95919
   403    O    9  f(C1)  Ryd( 4f)     0.00021       3.63430
   404    O    9  f(C1)  Ryd( 5f)     0.00001       6.20996
   405    O    9  f(S1)  Ryd( 4f)     0.00013       3.53253
   406    O    9  f(S1)  Ryd( 5f)     0.00001       6.20086
   407    O    9  f(C2)  Ryd( 4f)     0.00006       3.04473
   408    O    9  f(C2)  Ryd( 5f)     0.00001       6.18360
   409    O    9  f(S2)  Ryd( 4f)     0.00003       3.26462
   410    O    9  f(S2)  Ryd( 5f)     0.00001       6.04610
   411    O    9  f(C3)  Ryd( 4f)     0.00003       3.80367
   412    O    9  f(C3)  Ryd( 5f)     0.00002       6.40744
   413    O    9  f(S3)  Ryd( 4f)     0.00013       4.79083
   414    O    9  f(S3)  Ryd( 5f)     0.00005       6.63447
 
   415    O   10  S      Cor( 1S)     1.99975     -19.44582
   416    O   10  S      Val( 2S)     1.59086      -0.94949
   417    O   10  S      Ryd( 4S)     0.00175       3.74131
   418    O   10  S      Ryd( 3S)     0.00007       2.37991
   419    O   10  S      Ryd( 5S)     0.00002       8.62841
   420    O   10  px     Val( 2p)     1.72296      -0.36847
   421    O   10  px     Ryd( 4p)     0.00370       1.46176
   422    O   10  px     Ryd( 3p)     0.00082       0.82840
   423    O   10  px     Ryd( 5p)     0.00007       4.64511
   424    O   10  py     Val( 2p)     1.55874      -0.34647
   425    O   10  py     Ryd( 4p)     0.00279       1.83664
   426    O   10  py     Ryd( 3p)     0.00052       0.88581
   427    O   10  py     Ryd( 5p)     0.00004       4.98694
   428    O   10  pz     Val( 2p)     1.64520      -0.37518
   429    O   10  pz     Ryd( 4p)     0.00234       1.28021
   430    O   10  pz     Ryd( 3p)     0.00036       0.65739
   431    O   10  pz     Ryd( 5p)     0.00003       4.99972
   432    O   10  dxy    Ryd( 3d)     0.00203       2.15654
   433    O   10  dxy    Ryd( 4d)     0.00012       3.85982
   434    O   10  dxy    Ryd( 5d)     0.00002       5.69101
   435    O   10  dxz    Ryd( 3d)     0.00303       1.68824
   436    O   10  dxz    Ryd( 4d)     0.00008       3.73003
   437    O   10  dxz    Ryd( 5d)     0.00001       5.34501
   438    O   10  dyz    Ryd( 3d)     0.00333       2.22437
   439    O   10  dyz    Ryd( 4d)     0.00005       4.08115
   440    O   10  dyz    Ryd( 5d)     0.00002       5.58524
   441    O   10  dx2y2  Ryd( 3d)     0.00094       1.94758
   442    O   10  dx2y2  Ryd( 4d)     0.00008       3.67647
   443    O   10  dx2y2  Ryd( 5d)     0.00002       5.50386
   444    O   10  dz2    Ryd( 3d)     0.00438       1.94224
   445    O   10  dz2    Ryd( 4d)     0.00009       3.90672
   446    O   10  dz2    Ryd( 5d)     0.00002       5.53623
   447    O   10  f(0)   Ryd( 4f)     0.00003       3.70164
   448    O   10  f(0)   Ryd( 5f)     0.00001       6.19848
   449    O   10  f(C1)  Ryd( 4f)     0.00004       3.88717
   450    O   10  f(C1)  Ryd( 5f)     0.00002       6.16574
   451    O   10  f(S1)  Ryd( 4f)     0.00006       4.75910
   452    O   10  f(S1)  Ryd( 5f)     0.00003       6.44622
   453    O   10  f(C2)  Ryd( 4f)     0.00004       3.72329
   454    O   10  f(C2)  Ryd( 5f)     0.00002       6.30664
   455    O   10  f(S2)  Ryd( 4f)     0.00016       3.97375
   456    O   10  f(S2)  Ryd( 5f)     0.00002       6.26054
   457    O   10  f(C3)  Ryd( 4f)     0.00018       4.10393
   458    O   10  f(C3)  Ryd( 5f)     0.00003       6.39733
   459    O   10  f(S3)  Ryd( 4f)     0.00027       3.93263
   460    O   10  f(S3)  Ryd( 5f)     0.00003       6.26730
 
   461    C   11  S      Cor( 1S)     1.99942     -10.47545
   462    C   11  S      Val( 2S)     1.09539      -0.32255
   463    C   11  S      Ryd( 4S)     0.00184       1.23983
   464    C   11  S      Ryd( 5S)     0.00007       4.85988
   465    C   11  S      Ryd( 3S)     0.00002       1.23954
   466    C   11  px     Val( 2p)     1.15907      -0.12872
   467    C   11  px     Ryd( 4p)     0.00081       1.24793
   468    C   11  px     Ryd( 5p)     0.00007       1.84084
   469    C   11  px     Ryd( 3p)     0.00003       0.85240
   470    C   11  py     Val( 2p)     1.03569      -0.11322
   471    C   11  py     Ryd( 4p)     0.00114       1.28415
   472    C   11  py     Ryd( 5p)     0.00010       1.71992
   473    C   11  py     Ryd( 3p)     0.00002       0.81826
   474    C   11  pz     Val( 2p)     0.90734      -0.09224
   475    C   11  pz     Ryd( 4p)     0.00317       1.17148
   476    C   11  pz     Ryd( 5p)     0.00006       1.73514
   477    C   11  pz     Ryd( 3p)     0.00003       0.85965
   478    C   11  dxy    Ryd( 3d)     0.00293       1.63691
   479    C   11  dxy    Ryd( 5d)     0.00004       3.39997
   480    C   11  dxy    Ryd( 4d)     0.00002       1.86214
   481    C   11  dxz    Ryd( 4d)     0.00208       1.54962
   482    C   11  dxz    Ryd( 5d)     0.00004       3.13130
   483    C   11  dxz    Ryd( 3d)     0.00002       1.45737
   484    C   11  dyz    Ryd( 4d)     0.00251       1.83382
   485    C   11  dyz    Ryd( 5d)     0.00008       3.34983
   486    C   11  dyz    Ryd( 3d)     0.00002       1.48493
   487    C   11  dx2y2  Ryd( 4d)     0.00075       1.49435
   488    C   11  dx2y2  Ryd( 5d)     0.00003       3.18146
   489    C   11  dx2y2  Ryd( 3d)     0.00002       1.46592
   490    C   11  dz2    Ryd( 3d)     0.00158       1.63879
   491    C   11  dz2    Ryd( 5d)     0.00008       3.15240
   492    C   11  dz2    Ryd( 4d)     0.00001       1.66054
   493    C   11  f(0)   Ryd( 5f)     0.00004       3.88559
   494    C   11  f(0)   Ryd( 4f)     0.00002       2.40952
   495    C   11  f(C1)  Ryd( 5f)     0.00005       3.89209
   496    C   11  f(C1)  Ryd( 4f)     0.00004       2.53885
   497    C   11  f(S1)  Ryd( 5f)     0.00006       4.04220
   498    C   11  f(S1)  Ryd( 4f)     0.00002       2.33973
   499    C   11  f(C2)  Ryd( 5f)     0.00007       3.86505
   500    C   11  f(C2)  Ryd( 4f)     0.00002       2.43261
   501    C   11  f(S2)  Ryd( 5f)     0.00011       3.92174
   502    C   11  f(S2)  Ryd( 4f)     0.00002       2.57623
   503    C   11  f(C3)  Ryd( 5f)     0.00003       3.85208
   504    C   11  f(C3)  Ryd( 4f)     0.00003       2.70341
   505    C   11  f(S3)  Ryd( 5f)     0.00009       3.91581
   506    C   11  f(S3)  Ryd( 4f)     0.00003       2.65893
 
   507    H   12  S      Val( 1S)     0.75551       0.05576
   508    H   12  S      Ryd( 4S)     0.00048       1.97476
   509    H   12  S      Ryd( 2S)     0.00012       0.80527
   510    H   12  S      Ryd( 3S)     0.00004       1.70917
   511    H   12  px     Ryd( 2p)     0.00047       1.03565
   512    H   12  px     Ryd( 4p)     0.00007       4.17523
   513    H   12  px     Ryd( 3p)     0.00007       2.96842
   514    H   12  py     Ryd( 2p)     0.00076       0.94470
   515    H   12  py     Ryd( 3p)     0.00020       4.22323
   516    H   12  py     Ryd( 4p)     0.00004       4.38574
   517    H   12  pz     Ryd( 2p)     0.00014       0.68751
   518    H   12  pz     Ryd( 4p)     0.00003       3.93781
   519    H   12  pz     Ryd( 3p)     0.00004       2.18264
   520    H   12  dxy    Ryd( 3d)     0.00003       2.03892
   521    H   12  dxy    Ryd( 4d)     0.00002       4.53964
   522    H   12  dxz    Ryd( 3d)     0.00003       1.56554
   523    H   12  dxz    Ryd( 4d)     0.00000       3.74611
   524    H   12  dyz    Ryd( 3d)     0.00002       1.77196
   525    H   12  dyz    Ryd( 4d)     0.00001       4.13786
   526    H   12  dx2y2  Ryd( 3d)     0.00007       2.38546
   527    H   12  dx2y2  Ryd( 4d)     0.00003       4.54663
   528    H   12  dz2    Ryd( 3d)     0.00003       2.21384
   529    H   12  dz2    Ryd( 4d)     0.00002       4.20418
 
   530    H   13  S      Val( 1S)     0.78319       0.03599
   531    H   13  S      Ryd( 4S)     0.00031       2.04921
   532    H   13  S      Ryd( 2S)     0.00015       0.86222
   533    H   13  S      Ryd( 3S)     0.00001       1.21444
   534    H   13  px     Ryd( 2p)     0.00058       1.09139
   535    H   13  px     Ryd( 4p)     0.00008       4.26481
   536    H   13  px     Ryd( 3p)     0.00008       2.85851
   537    H   13  py     Ryd( 2p)     0.00045       1.16256
   538    H   13  py     Ryd( 4p)     0.00008       4.21554
   539    H   13  py     Ryd( 3p)     0.00006       2.81821
   540    H   13  pz     Ryd( 2p)     0.00027       0.91318
   541    H   13  pz     Ryd( 4p)     0.00010       2.95024
   542    H   13  pz     Ryd( 3p)     0.00001       2.46918
   543    H   13  dxy    Ryd( 3d)     0.00013       2.20049
   544    H   13  dxy    Ryd( 4d)     0.00002       4.26026
   545    H   13  dxz    Ryd( 3d)     0.00001       1.76806
   546    H   13  dxz    Ryd( 4d)     0.00001       3.66808
   547    H   13  dyz    Ryd( 3d)     0.00001       1.78153
   548    H   13  dyz    Ryd( 4d)     0.00001       3.65786
   549    H   13  dx2y2  Ryd( 3d)     0.00001       2.02391
   550    H   13  dx2y2  Ryd( 4d)     0.00002       4.34469
   551    H   13  dz2    Ryd( 3d)     0.00002       1.96582
   552    H   13  dz2    Ryd( 4d)     0.00002       3.70252
 
   553    H   14  S      Val( 1S)     0.78405       0.03177
   554    H   14  S      Ryd( 4S)     0.00034       2.02761
   555    H   14  S      Ryd( 2S)     0.00014       0.85827
   556    H   14  S      Ryd( 3S)     0.00001       1.12401
   557    H   14  px     Ryd( 2p)     0.00091       1.07908
   558    H   14  px     Ryd( 4p)     0.00007       5.07807
   559    H   14  px     Ryd( 3p)     0.00007       3.12002
   560    H   14  py     Ryd( 2p)     0.00029       1.08088
   561    H   14  py     Ryd( 4p)     0.00007       3.40997
   562    H   14  py     Ryd( 3p)     0.00007       2.82401
   563    H   14  pz     Ryd( 2p)     0.00013       0.89184
   564    H   14  pz     Ryd( 4p)     0.00009       2.85033
   565    H   14  pz     Ryd( 3p)     0.00001       2.56950
   566    H   14  dxy    Ryd( 3d)     0.00004       2.18018
   567    H   14  dxy    Ryd( 4d)     0.00003       4.17901
   568    H   14  dxz    Ryd( 3d)     0.00000       1.69521
   569    H   14  dxz    Ryd( 4d)     0.00001       3.97802
   570    H   14  dyz    Ryd( 3d)     0.00003       1.39883
   571    H   14  dyz    Ryd( 4d)     0.00000       3.68673
   572    H   14  dx2y2  Ryd( 3d)     0.00008       2.37522
   573    H   14  dx2y2  Ryd( 4d)     0.00005       4.10510
   574    H   14  dz2    Ryd( 3d)     0.00002       1.87870
   575    H   14  dz2    Ryd( 4d)     0.00003       3.81450
 
   576    H   15  S      Val( 1S)     0.77786       0.03125
   577    H   15  S      Ryd( 4S)     0.00046       2.00189
   578    H   15  S      Ryd( 2S)     0.00010       0.92667
   579    H   15  S      Ryd( 3S)     0.00002       1.44148
   580    H   15  px     Ryd( 2p)     0.00048       0.94965
   581    H   15  px     Ryd( 4p)     0.00006       4.17125
   582    H   15  px     Ryd( 3p)     0.00007       3.00958
   583    H   15  py     Ryd( 2p)     0.00095       1.09599
   584    H   15  py     Ryd( 3p)     0.00017       3.95744
   585    H   15  py     Ryd( 4p)     0.00003       4.45559
   586    H   15  pz     Ryd( 2p)     0.00034       0.72640
   587    H   15  pz     Ryd( 4p)     0.00004       3.88119
[...]
 02,0.01591766,-0.04242049,0.07228980,-0.00418197,-0.05841484,-0.204397
 72,0.03750839,-0.02881121,0.66256014,0.00627872,0.01670280,-0.00863246
 ,0.01994025,-0.01404502,0.00715022,0.05091933,0.05194799,-0.08304790,-
 0.11781109,-0.09313516,0.17455499,-0.05426715,-0.04563338,0.01926983,-
 0.02734136,0.04105169,-0.00437849,0.05284322,-0.02149591,-0.00600339,-
 0.13001488,0.00201717,0.00939065,0.67117678,0.01441569,0.07775334,-0.0
 1698484,0.04363619,-0.05878609,0.00230298,-0.08612731,-0.03223628,0.02
 226970,0.08188048,-0.29990159,0.02596192,-0.00600224,0.65179734,0.0079
 9306,-0.00602329,0.00320406,-0.00471643,0.00229400,-0.00547787,0.00734
 856,0.01112053,-0.00090033,-0.00460039,0.04091576,-0.07961213,-0.07440
 338,-0.08369944,0.22766096,-0.24732812,-0.05039340,0.03907407,0.047638
 67,-0.07086580,0.00501970,-0.07261564,-0.00506045,0.01375301,0.0209815
 4,0.08149082,-0.01937282,-0.26184114,0.04200235,0.02846374,0.68930943,
 -0.11688616,-0.18191890,0.04469637,-0.01589115,-0.03765827,0.01086354,
 -0.00891555,-0.00289547,0.00143168,0.02943126,-0.01312857,-0.00118202,
 0.10481407,-0.16915644,-0.00236640,-0.01458690,0.63651535,0.05151288,0
 .03268414,-0.08149558,-0.00263564,0.02012057,0.00511026,0.01266378,0.0
 0062336,-0.00730049,-0.00657391,-0.00992738,0.01388796,0.01327589,0.00
 699933,-0.07332190,-0.07934369,-0.08222033,0.17424067,0.01732622,-0.01
 866261,0.00129362,-0.00401309,-0.00751523,0.00343535,-0.00460414,0.000
 07645,0.00077365,-0.00526077,0.00325881,0.00134925,0.00494537,0.033600
 08,-0.00707559,-0.09947492,0.01170726,0.00348350,0.91667913,-0.0123509
 1,-0.03381875,0.00625501,-0.00523896,0.00547795,0.00142456,0.00145389,
 0.00231597,-0.00124755,0.00081673,0.00232526,0.00037068,0.02855604,0.0
 0038512,-0.00302474,0.01895370,-0.19580704,0.01732571,-0.12847408,0.67
 769327,0.00055609,0.01193090,-0.00031795,0.00246323,0.00130157,0.00723
 255,0.00018580,-0.00009319,-0.00126841,0.00229336,-0.00001810,0.007434
 53,-0.00330353,-0.00311206,0.00200835,0.00497953,0.01259938,-0.0847118
 5,0.13377895,-0.06783147,0.24983808,-0.00764312,-0.00663070,0.00220845
 ,0.00082626,0.00240211,-0.00020619,0.00057555,-0.00018622,-0.00020428,
 -0.00007740,0.00111435,0.00020181,0.00547354,0.00005589,-0.00087816,-0
 .02038269,0.03141145,-0.01033786,-0.63109199,0.21535812,-0.12038699,0.
 75947227,0.00357927,-0.00082589,0.00113935,0.00111334,0.00034535,-0.00
 096248,0.00106878,-0.00086076,0.00000505,0.00169569,-0.00204546,-0.000
 82096,-0.01060912,-0.00771289,0.00436413,0.04799820,-0.02227399,0.0118
 7427,0.20904509,-0.20470526,0.05027495,-0.23114071,0.19826506,-0.00060
 983,-0.00047507,0.00008136,-0.00037530,-0.00030494,-0.00047402,-0.0003
 3399,-0.00000442,0.00021781,-0.00120443,0.00040969,-0.00142943,0.00230
 784,0.00211050,0.00140189,-0.01262906,0.00990256,0.01867068,-0.1194413
 5,0.05187166,-0.10756657,0.15699889,-0.05939680,0.06906290,0.00049523,
 0.00209122,-0.00004923,0.00173345,-0.00034429,-0.00024061,-0.00025283,
 -0.00044616,0.00020855,0.00076062,0.00013884,0.00011215,-0.00753287,-0
 .00425844,0.00180263,0.00667746,-0.00715737,-0.00037075,-0.20830606,-0
 .06401790,-0.02319118,-0.10665048,-0.03412838,-0.02472060,0.41996017,0
 .00636563,-0.00401987,-0.00051650,-0.00031864,-0.00216988,0.00129948,-
 0.00126111,-0.00066240,0.00036945,0.00042926,0.00071566,-0.00017606,-0
 .00696969,-0.00252554,0.00159330,-0.03382929,-0.03435225,-0.00186985,-
 0.09579104,-0.20060038,-0.00805949,-0.02318390,0.03356043,-0.00545010,
 -0.03332614,0.64394504,0.00007720,0.00009451,0.00130282,-0.00018415,0.
 00029879,-0.00060208,0.00035257,-0.00004305,0.00011381,-0.00036199,-0.
 00040292,-0.00045417,0.00062138,0.00028372,-0.00057970,0.00131043,0.00
 405348,0.01120068,-0.02044758,-0.00242617,-0.06976451,-0.02643113,-0.0
 0659615,0.02605370,0.08068143,-0.05596694,0.06106224,-0.00337780,0.004
 89569,-0.00046080,-0.00387977,-0.00074839,0.00099407,0.00489199,0.0015
 9890,0.00041615,-0.00719845,-0.02096293,0.01140883,-0.20895210,-0.0975
 3304,0.06535283,-0.04325266,-0.02189554,0.01539742,0.00129862,-0.01439
 980,-0.00078954,-0.00124562,0.00424880,-0.00012049,0.00106651,0.011174
 25,0.00164826,0.41688407,0.00100219,-0.00397807,0.00179682,-0.00394689
 ,0.00219469,0.00019104,0.00831294,-0.00481539,0.00025564,-0.04743240,-
 0.03410839,0.01946830,-0.09221837,-0.13805336,0.05230356,-0.00098987,0
 .01737267,0.00129594,-0.00742936,-0.01175372,-0.00019713,0.00122768,0.
 00373889,0.00014186,0.00948591,-0.00370268,-0.00219833,0.19083317,0.23
 532628,0.00086731,0.00125279,0.00763066,0.00059914,-0.00013596,-0.0010
 5124,-0.00017938,0.00179212,0.00720769,0.00903677,0.01105813,0.0040225
 7,0.03997088,0.03658967,-0.10028011,0.00845742,0.00092593,0.00413824,0
 .00041257,0.00082051,-0.00503126,-0.00043517,-0.00006993,0.00056001,-0
 .00088384,-0.00094677,0.00172516,0.04574003,-0.01346799,0.30081776,-0.
 00017692,0.00049017,0.00164183,0.00138694,0.00011545,-0.00023588,-0.00
 142307,0.00044518,0.00060418,0.00337114,0.00525898,-0.00371045,-0.0472
 5864,-0.02239131,-0.01574942,0.00267070,-0.00230542,-0.00011717,-0.002
 14999,0.00261813,-0.00080785,0.00100876,-0.00109319,0.00028038,-0.0009
 2617,-0.00149013,-0.00090022,-0.11833823,-0.03370441,-0.06159844,0.556
 52223,0.00031273,-0.00130990,0.00048834,-0.00034019,0.00065626,-0.0001
 9288,0.00102249,0.00017944,0.00109509,-0.00276901,0.00000384,0.0012580
 1,-0.02190874,-0.01696973,-0.01349030,0.00379411,0.00058157,-0.0023723
 2,0.00151665,0.00313885,0.00008432,-0.00043740,-0.00086346,0.00005442,
 -0.00036473,-0.00210436,-0.00044105,-0.03347460,-0.06678183,-0.0197196
 4,-0.00078873,0.57734695,0.00097533,-0.00041985,-0.00038294,0.00146310
 ,-0.00002753,-0.00012087,-0.00163696,0.00050548,-0.00000181,0.00549739
 ,0.00481054,-0.00192417,-0.00393214,-0.00588551,0.01302035,0.00504854,
 0.00172360,-0.00115730,0.00046414,0.00569661,0.00049902,0.00005523,-0.
 00183283,0.00005336,-0.00236132,-0.00303179,-0.00227074,-0.08532362,-0
 .03083839,-0.17393784,-0.07026024,-0.03353025,0.52754611,-0.29386888,0
 .10887673,0.02083619,0.00275425,-0.00092839,0.00059357,0.00166559,0.00
 025790,0.00079419,0.00038358,-0.00058072,-0.00007229,-0.00054979,-0.00
 354501,0.00156337,-0.01891926,0.01064190,0.00199674,-0.00320503,0.0018
 5558,-0.00126877,0.00243826,0.00128692,-0.00039711,0.00062459,-0.00003
 791,0.00013701,-0.00157933,0.00021070,0.00006926,0.00011287,0.00019087
 ,0.00041339,0.30990309,0.11144427,-0.10911602,-0.00627378,0.02725305,-
 0.00624470,-0.00226855,0.00052155,-0.00516336,0.00244555,-0.00092813,-
 0.00102422,0.00016583,-0.00204428,-0.00168825,0.00190732,-0.01589465,0
 .01124674,0.00155419,-0.00321675,0.00021557,-0.00106007,0.00092405,-0.
 00187594,0.00014687,0.00113049,0.00062637,0.00036377,-0.00166568,0.000
 10633,0.00017609,0.00005738,0.00017362,0.00034759,-0.11810992,0.112426
 33,0.02019183,-0.00517904,-0.04359509,-0.00486108,0.00260241,0.0055561
 8,0.00117699,0.00243822,0.00668514,0.00001895,-0.00006867,-0.00098615,
 0.00183578,0.00226598,0.00567486,0.00732101,-0.00415231,0.00440400,0.0
 0012392,-0.00038918,-0.00364156,-0.00067822,0.00054774,-0.00030925,-0.
 00074306,-0.00072174,-0.00000064,0.00041769,-0.00028335,0.00007960,0.0
 0000075,0.00008731,-0.00015634,-0.02356715,0.00396942,0.03096511,0.007
 24936,0.00413464,-0.00152548,-0.23559288,-0.12746660,0.05932136,-0.016
 81854,-0.01821916,0.00695211,-0.00357386,0.00366296,0.00117127,-0.0003
 6028,0.00130320,-0.00022859,0.00164564,0.00155351,0.00064221,0.0002928
 2,0.00031781,-0.00004703,0.00001380,-0.00011284,0.00003341,-0.00002141
 ,0.00006778,-0.00001066,0.00007830,-0.00030122,-0.00020826,0.00000011,
 0.00005589,0.00003633,0.00042064,-0.00062363,-0.00070817,0.24660904,-0
 .02565246,-0.01269413,0.00752323,-0.12732242,-0.15079624,0.04424731,0.
 01163734,0.01142556,-0.00361544,0.00310833,0.00019052,0.00070680,0.001
 26105,-0.00105815,-0.00005345,0.00210956,-0.00461938,0.00219173,-0.001
 66772,0.00057205,0.00026021,0.00042587,-0.00024931,0.00002784,0.000007
 14,-0.00082926,-0.00001175,-0.00018484,0.00018926,-0.00023422,-0.00000
 105,-0.00000776,0.00001821,0.00019410,0.00088818,-0.00109659,0.1363930
 5,0.15613496,0.00427188,0.00223008,0.00193526,0.05912896,0.04422172,-0
 .05646893,0.00122940,0.00149469,0.00247734,0.00129362,0.00082552,0.006
 55750,-0.00026873,0.00000995,-0.00022871,0.00079092,0.00196340,0.00698
 907,0.00035083,0.00002393,0.00041400,-0.00005720,0.00014248,-0.0000374
 8,-0.00005929,0.00016619,-0.00016702,-0.00011298,-0.00025507,-0.001024
 92,-0.00013318,-0.00008252,-0.00001499,-0.00080784,-0.00100449,-0.0041
 4657,-0.06495205,-0.04903590,0.04724725,-0.00504068,0.00265481,0.00165
 105,0.00224830,0.02845999,-0.00483862,-0.06442338,0.03726128,-0.002662
 69,0.00776798,-0.02520050,0.00405755,-0.00282971,-0.00182013,0.0024807
 5,-0.00134356,-0.00056836,0.00014025,-0.00033412,0.00005951,-0.0002796
 7,0.00026778,0.00009083,0.00000196,0.00011727,0.00008315,0.00003555,-0
 .00045576,-0.00173753,0.00020350,0.00019984,0.00000472,0.00029720,0.00
 005189,0.00128844,-0.00029680,0.00085032,-0.00081130,-0.00070184,0.062
 33855,0.00295993,0.00098516,0.00059689,-0.00108819,-0.00751821,0.00246
 996,0.03722260,-0.33086915,0.04758516,0.00466455,-0.01303502,0.0024567
 6,-0.00234902,0.00130888,0.00177801,-0.00026683,0.00069350,-0.00026245
 ,0.00001399,-0.00005117,-0.00020165,-0.00002967,-0.00007625,0.00008140
 ,-0.00002065,-0.00008111,-0.00000961,-0.00059257,-0.00129357,0.0000893
 6,0.00026116,0.00002609,0.00034560,-0.00017841,-0.00042505,0.00007326,
 0.00011041,0.00048371,-0.00083507,-0.04024382,0.34924672,0.00139494,0.
 00055136,0.00678579,0.00038019,-0.00250380,0.00521440,-0.00237034,0.04
 734417,-0.04963482,-0.00108942,0.00775736,0.00374212,0.00259790,0.0020
 7033,0.00752412,0.00060148,-0.00030976,-0.00098815,-0.00014199,-0.0000
 6759,-0.00109699,-0.00004595,0.00009696,0.00012966,-0.00008668,-0.0000
 6127,0.00005518,-0.00022197,0.00049991,-0.00054319,-0.00013430,-0.0001
 4242,-0.00018925,-0.00002319,-0.00024136,-0.00018334,-0.00087395,-0.00
 069760,-0.00368306,0.00111969,-0.05313009,0.03677479,0.00042195,-0.000
 61963,-0.00015867,-0.00142407,-0.00366835,0.00253522,-0.01629647,0.011
 51336,0.00181511,-0.29224414,0.10597891,0.03462789,-0.00198341,-0.0002
 8231,0.00146335,0.00137001,0.00090868,0.00072512,-0.00006820,-0.000658
 29,0.00009151,-0.00006369,0.00018026,-0.00006317,0.00014412,0.00015184
 ,0.00001560,0.00068829,-0.00058012,-0.00095844,0.00006362,-0.00017462,
 -0.00006131,-0.00006327,0.00005715,-0.00013472,-0.00082021,0.00061064,
 0.00008021,0.00068744,-0.00037570,-0.00104191,0.30952167,-0.00099166,-
 0.00114050,0.00018767,-0.00312366,-0.00133260,0.00211783,-0.01761381,0
 .01192292,0.00203481,0.10469992,-0.10371214,-0.00959497,0.03012828,-0.
 00720698,-0.00401761,0.00000720,-0.00563352,0.00182752,0.00141845,0.00
 118231,-0.00028657,0.00042255,-0.00094617,0.00021417,-0.00034242,-0.00
 035285,0.00001951,-0.00096465,0.00296317,-0.00101125,0.00012790,-0.000
 82205,0.00008060,0.00005509,0.00003111,-0.00012373,-0.00090588,0.00041
 393,0.00007073,0.00050352,0.00063469,-0.00100649,-0.11295603,0.1040283
 1,0.00003879,0.00059355,-0.00117131,0.00239082,0.00193220,0.00648569,0
 .00624739,-0.00404957,0.00261887,0.03591526,-0.01005392,-0.04248356,-0
 .00335806,0.00289461,0.00570247,0.00042448,0.00199877,0.00510815,-0.00
 016219,0.00015557,0.00055191,-0.00010661,-0.00003674,-0.00028116,-0.00
 004684,-0.00003989,-0.00005078,-0.00124517,-0.00198889,-0.00410206,0.0
 0024990,-0.00030917,0.00054959,-0.00010004,-0.00013567,-0.00059619,0.0
 0037835,-0.00016097,0.00022219,-0.00107601,-0.00090346,-0.00401790,-0.
 03889356,0.01007785,0.03190607,0.00044877,-0.00086554,0.00000121,-0.00
 021750,-0.00015151,0.00031898,-0.00010178,0.00003149,0.00000409,0.0000
 2136,0.00012296,0.00003440,-0.00019442,-0.00036551,0.00011006,-0.00417
 899,-0.00263819,-0.00158462,0.01841826,-0.04355986,0.00616155,-0.00293
 665,0.00642317,0.00023912,-0.10687635,0.17669572,-0.03557093,-0.001167
 76,0.00108462,-0.00007610,0.00058871,0.00019924,0.00036842,-0.00007605
 ,-0.00013453,-0.00006553,0.00001432,-0.00008021,0.00001401,-0.00000379
 ,0.00000461,-0.00002043,-0.00000182,0.00000187,-0.00000222,0.09639097,
 0.00048700,-0.00096616,-0.00025820,-0.00059348,0.00009592,0.00013214,0
 .00004579,0.00013813,-0.00006056,0.00007927,0.00008031,0.00011204,0.00
 024039,0.00008593,0.00016468,-0.00442740,0.00125912,-0.00043038,0.0026
 0690,-0.04590863,0.00480269,0.00805648,0.00632399,0.00064993,0.1304397
 2,-0.42718254,0.06183033,-0.00020759,0.00028360,-0.00027233,0.00026829
 ,0.00000236,0.00007087,-0.00014438,-0.00009559,0.00007570,0.00005225,-
 0.00005616,0.00005120,-0.00000532,0.00001612,-0.00001404,0.00000051,0.
 00001958,-0.00002246,-0.13694981,0.46587938,0.00020643,-0.00074458,0.0
 0049404,-0.00046484,0.00014413,-0.00032121,0.00022070,0.00011640,-0.00
 000977,-0.00002458,-0.00024255,-0.00021533,0.00013642,0.00067957,-0.00
 043798,-0.00164187,0.00072683,0.00443764,0.00354019,-0.00528279,0.0059
 6575,-0.00057679,0.00035105,-0.00624009,-0.03192166,0.07198792,-0.0287
 6472,0.00066446,-0.00105082,-0.00007285,-0.00013356,0.00011552,0.00004
 170,0.00002122,0.00007847,0.00017584,0.00000372,-0.00005257,-0.0000291
 5,0.00001899,0.00000307,0.00005055,-0.00000351,0.00000770,0.00001323,0
 .02992416,-0.06701262,0.02481784,0.00018410,0.00058677,-0.00014900,0.0
 0028085,-0.00044041,0.00002606,-0.00047604,-0.00024285,0.00027198,0.00
 038566,-0.00009830,0.00043273,0.00339167,0.00475828,-0.00231110,-0.001
 07510,-0.00042225,0.00080861,0.00061210,0.00035211,-0.00003190,-0.0002
 5957,-0.00006155,-0.00002689,-0.00037558,-0.00008358,-0.00015837,-0.01
 686607,0.00966977,-0.02093416,-0.08033223,0.07050817,-0.03386807,-0.00
 005745,-0.00002914,-0.00003827,0.00002068,-0.00003108,-0.00002507,-0.0
 0002065,-0.00002073,-0.00003691,0.00005083,-0.00035047,-0.00040602,-0.
 00008261,-0.00007745,0.00001119,0.08735456,-0.00016760,0.00002416,-0.0
 0000399,0.00008277,0.00012984,0.00008458,0.00009391,0.00012223,-0.0001
 3790,0.00079825,0.00043006,-0.00064657,-0.00081853,0.00214823,-0.00079
 857,0.00018870,-0.00011107,0.00054724,-0.00089372,-0.00090085,-0.00011
 863,0.00051559,0.00014134,0.00007241,0.00072347,0.00058671,0.00025882,
 -0.00566953,0.01263024,-0.00665645,0.07371941,-0.22956377,0.09778751,-
 0.00001760,-0.00004243,-0.00006034,0.00000794,0.00000286,0.00000469,0.
 00001657,0.00001590,-0.00008877,-0.00011658,-0.00028132,-0.00015767,-0
 .00003683,0.00007394,0.00001245,-0.07903373,0.24030715,0.00015634,0.00
 053087,-0.00009844,0.00019574,-0.00037709,-0.00000504,-0.00020820,-0.0
 0037230,0.00011890,-0.00035446,0.00022166,0.00031804,0.00460630,0.0025
 1694,-0.00118060,-0.00106316,-0.00030615,0.00047579,-0.00009322,-0.000
 91010,-0.00007828,0.00011056,0.00024783,-0.00000275,0.00057601,0.00032
 327,0.00044365,-0.02219187,0.01370620,-0.02220847,-0.03621187,0.093063
 45,-0.10041727,-0.00006550,-0.00004505,0.00000638,0.00002345,-0.000025
 73,-0.00001319,-0.00006449,-0.00004372,0.00005496,-0.00009326,-0.00046
 148,-0.00022405,-0.00000461,0.00002707,0.00001378,0.05241088,-0.104410
 20,0.11624970,-0.00006191,0.00006425,0.00018559,-0.00016040,-0.0000510
 2,0.00000474,0.00008350,-0.00001535,0.00022007,-0.00041198,-0.00015996
 ,0.00011685,0.00000655,0.00054904,-0.00376632,-0.00036298,-0.00022073,
 0.00007835,-0.00022900,-0.00117961,-0.00002719,0.00001654,0.00037364,0
 .00000684,0.00048208,0.00075823,-0.00014228,-0.02326786,-0.01518680,0.
 00359068,-0.19686695,-0.09737348,0.09233789,-0.00005669,-0.00004771,0.
 00002499,-0.00000447,-0.00000950,-0.00002565,-0.00003658,-0.00004516,0
 .00001999,0.00000941,-0.00012378,-0.00017268,-0.00018340,-0.00004012,0
 .00002687,0.01107464,0.00597931,-0.00464070,0.21958913,-0.00026669,-0.
 00031247,0.00021152,-0.00031198,0.00029774,0.00000312,0.00045696,0.000
 12086,-0.00014173,-0.00044633,-0.00018530,0.00005473,-0.00057587,0.000
 64537,-0.00173252,0.00006257,-0.00016373,-0.00018480,-0.00006727,-0.00
 031538,-0.00010734,-0.00007512,0.00013193,-0.00002872,-0.00012976,-0.0
 0002386,0.00017442,-0.01029214,-0.00534194,0.00169475,-0.09859547,-0.1
 1791467,0.06117133,-0.00001440,-0.00002013,0.00004438,-0.00001202,0.00
 000451,0.00000487,-0.00001535,-0.00002896,-0.00002027,0.00002903,0.000
 09770,0.00017667,0.00006997,0.00000430,0.00001358,-0.01928306,-0.01149
 754,0.01222048,0.11430650,0.12259465,-0.00015522,0.00016643,0.00022370
 ,-0.00009716,-0.00002330,-0.00002069,0.00017580,-0.00010577,0.00024991
 ,-0.00043633,-0.00043022,0.00040169,-0.00266793,-0.00058537,-0.0027130
 4,-0.00073368,-0.00039412,0.00027142,-0.00014145,-0.00036724,-0.000204
 73,-0.00001476,0.00011668,-0.00000093,0.00011711,-0.00001207,0.0001618
 1,-0.02845114,-0.01819822,0.00828299,0.10428603,0.06878851,-0.11037473
 ,-0.00005860,-0.00004769,0.00003275,-0.00000214,-0.00001062,-0.0000359
 5,-0.00004341,-0.00004153,-0.00000814,0.00005417,-0.00012287,-0.000197
 27,0.00007307,0.00003949,0.00003921,0.01060226,0.00503529,-0.00524526,
 -0.09556421,-0.06510137,0.11649837,-0.00010066,-0.00039894,0.00018028,
 -0.00021395,0.00030594,-0.00005511,0.00044718,-0.00009490,-0.00000119,
 -0.00063092,-0.00032589,0.00092495,0.00528860,0.00012410,-0.00284896,0
 .00048161,0.00101951,0.00023889,-0.00083522,-0.00046221,-0.00037638,0.
 00025845,0.00004180,0.00005376,-0.00111976,0.00056558,-0.00067211,0.00
 467362,-0.01829999,-0.02367378,-0.11845271,0.08002663,0.09048670,0.000
 02099,0.00001803,-0.00001892,-0.00000339,0.00001351,-0.00001599,-0.000
 04115,-0.00002651,-0.00002715,0.00000794,0.00000759,-0.00007560,0.0001
 3874,0.00016897,-0.00000753,-0.00380979,0.00462821,0.00691206,-0.00961
 965,0.01516045,0.01305759,0.12351007,-0.00021048,-0.00020187,0.0000842
 4,-0.00018730,0.00016157,0.00003174,0.00026020,0.00000840,-0.00005517,
 -0.00008542,-0.00077116,0.00039489,0.00255645,0.00117108,-0.00123497,-
 0.00029262,0.00004967,0.00022352,0.00047410,0.00055485,-0.00016831,-0.
 00023044,-0.00007160,-0.00002326,0.00051944,-0.00082724,0.00071862,-0.
 00415949,-0.00497617,-0.01188482,0.07700767,-0.14577145,-0.09699178,-0
 .00001301,-0.00001857,-0.00002947,-0.00001807,0.00000482,0.00000360,-0
 .00002051,-0.00003229,-0.00003664,0.00000128,0.00013442,0.00002920,0.0
 0014833,-0.00005360,0.00014923,0.01429951,-0.01421569,-0.01590595,-0.0
 0757776,0.01190692,0.01129399,-0.08247189,0.15294790,-0.00037637,-0.00
 030181,-0.00003611,-0.00047544,0.00030686,0.00000564,0.00066094,0.0000
 5133,-0.00010133,-0.00094722,-0.00096384,0.00071566,0.00430278,0.00331
 202,-0.00146468,-0.00046008,0.00004555,0.00004071,-0.00150259,-0.00239
 741,-0.00026207,0.00078433,0.00055541,0.00011031,0.00117718,0.00111288
 ,0.00053529,-0.00312216,-0.02118109,-0.02621277,0.08292950,-0.09475441
 ,-0.15076189,-0.00006445,-0.00007844,0.00003527,-0.00000590,0.00001950
 ,0.00000736,-0.00004295,-0.00005191,0.00001324,0.00000036,-0.00001342,
 -0.00003389,0.00007538,0.00011443,0.00004152,-0.00657795,0.00927612,0.
 01179213,0.00772617,-0.00845309,-0.00736111,-0.08408151,0.11340134,0.1
 7293673\\-0.00000343,0.00000370,0.00000070,-0.00000473,-0.00000224,-0.
 00000130,0.00000279,-0.00000193,-0.00000166,0.00000022,-0.00000276,-0.
 00000005,0.00000563,0.00000452,-0.00000287,0.00000124,-0.00000694,-0.0
 0000193,0.00000458,0.00000560,0.00000125,0.00000226,0.00000543,0.00000
 161,-0.00000631,-0.00000177,0.00000017,-0.00000200,-0.00000088,0.00000
 762,-0.00000205,-0.00000274,-0.00000446,0.00000170,-0.00000028,-0.0000
 0089,0.00000005,0.00000099,-0.00000212,-0.00000098,0.00000005,-0.00000
 317,-0.00000130,-0.00000083,-0.00000122,0.00000135,0.00000264,0.000002
 81,-0.00000020,-0.00000102,0.00000077,-0.00000018,-0.00000026,0.000002
 54,0.00000136,-0.00000129,0.00000220\\\@
 The archive entry for this job was punched.


 REPARTEE - WHAT YOU THINK OF AFTER YOU BECOME A DEPARTEE.
 Job cpu time:       0 days 22 hours  4 minutes 43.9 seconds.
 Elapsed time:       0 days  1 hours  6 minutes 15.6 seconds.
 File lengths (MBytes):  RWF=    588 Int=      0 D2E=      0 Chk=     43 Scr=      1
 Normal termination of Gaussian 16 at Wed Apr  2 15:37:31 2025.
