 Entering Gaussian System, Link 0=g16
 Initial command:
 /usr/local/gaussian16c01/g16/l1.exe "/scr/dhuang/Gau-312227.inp" -scrdir="/scr/dhuang/"
 Entering Link 1 = /usr/local/gaussian16c01/g16/l1.exe PID=    312228.
  
 Copyright (c) 1988-2019, Gaussian, Inc.  All Rights Reserved.
  
 This is part of the Gaussian(R) 16 program.  It is based on
 the Gaussian(R) 09 system (copyright 2009, Gaussian, Inc.),
 the Gaussian(R) 03 system (copyright 2003, Gaussian, Inc.),
 the Gaussian(R) 98 system (copyright 1998, Gaussian, Inc.),
 the Gaussian(R) 94 system (copyright 1995, Gaussian, Inc.),
 the Gaussian 92(TM) system (copyright 1992, Gaussian, Inc.),
 the Gaussian 90(TM) system (copyright 1990, Gaussian, Inc.),
 the Gaussian 88(TM) system (copyright 1988, Gaussian, Inc.),
 the Gaussian 86(TM) system (copyright 1986, Carnegie Mellon
 University), and the Gaussian 82(TM) system (copyright 1983,
 Carnegie Mellon University). Gaussian is a federally registered
 trademark of Gaussian, Inc.
  
 This software contains proprietary and confidential information,
 including trade secrets, belonging to Gaussian, Inc.
  
 This software is provided under written license and may be
 used, copied, transmitted, or stored only in accord with that
 written license.
  
 The following legend is applicable only to US Government
 contracts under FAR:
  
                    RESTRICTED RIGHTS LEGEND
  
 Use, reproduction and disclosure by the US Government is
 subject to restrictions as set forth in subparagraphs (a)
 and (c) of the Commercial Computer Software - Restricted
 Rights clause in FAR 52.227-19.
  
 Gaussian, Inc.
 340 Quinnipiac St., Bldg. 40, Wallingford CT 06492
  
  
 ---------------------------------------------------------------
 Warning -- This program may not be used in any manner that
 competes with the business of Gaussian, Inc. or will provide
 assistance to any competitor of Gaussian, Inc.  The licensee
 of this program is prohibited from giving any competitor of
 Gaussian, Inc. access to this program.  By using this program,
 the user acknowledges that Gaussian, Inc. is engaged in the
 business of creating and licensing software in the field of
 computational chemistry and represents and warrants to the
 licensee that it is not a competitor of Gaussian, Inc. and that
 it will not use this program in any manner prohibited above.
 ---------------------------------------------------------------
  

 Cite this work as:
 Gaussian 16, Revision C.01,
 M. J. Frisch, G. W. Trucks, H. B. Schlegel, G. E. Scuseria, 
 M. A. Robb, J. R. Cheeseman, G. Scalmani, V. Barone, 
 G. A. Petersson, H. Nakatsuji, X. Li, M. Caricato, A. V. Marenich, 
 J. Bloino, B. G. Janesko, R. Gomperts, B. Mennucci, H. P. Hratchian, 
 J. V. Ortiz, A. F. Izmaylov, J. L. Sonnenberg, D. Williams-Young, 
 F. Ding, F. Lipparini, F. Egidi, J. Goings, B. Peng, A. Petrone, 
 T. Henderson, D. Ranasinghe, V. G. Zakrzewski, J. Gao, N. Rega, 
 G. Zheng, W. Liang, M. Hada, M. Ehara, K. Toyota, R. Fukuda, 
 J. Hasegawa, M. Ishida, T. Nakajima, Y. Honda, O. Kitao, H. Nakai, 
 T. Vreven, K. Throssell, J. A. Montgomery, Jr., J. E. Peralta, 
 F. Ogliaro, M. J. Bearpark, J. J. Heyd, E. N. Brothers, K. N. Kudin, 
 V. N. Staroverov, T. A. Keith, R. Kobayashi, J. Normand, 
 K. Raghavachari, A. P. Rendell, J. C. Burant, S. S. Iyengar, 
 J. Tomasi, M. Cossi, J. M. Millam, M. Klene, C. Adamo, R. Cammi, 
 J. W. Ochterski, R. L. Martin, K. Morokuma, O. Farkas, 
 J. B. Foresman, and D. J. Fox, Gaussian, Inc., Wallingford CT, 2019.
 
 ******************************************
 Gaussian 16:  ES64L-G16RevC.01  3-Jul-2019
                 2-Apr-2025 
 ******************************************
 %nprocshared=20
 Will use up to   20 processors via shared memory.
 %mem=10000MW
 %chk=o-Ph.chk
 ------------------------------------
 # opt freq m062x/aug-cc-pvtz pop=nbo
 ------------------------------------
 1/18=20,19=15,26=3,38=1/1,3;
 2/9=110,12=2,17=6,18=5,40=1/2;
 3/5=16,6=1,7=10,11=2,25=1,30=1,71=1,74=-55/1,2,3;
 4//1;
 5/5=2,38=5/2;
 6/7=2,8=2,9=2,10=2,28=1,40=1/1,7;
 7//1,2,3,16;
 1/18=20,19=15,26=3/3(2);
 2/9=110/2;
 99//99;
 2/9=110/2;
 3/5=16,6=1,7=10,11=2,25=1,30=1,71=1,74=-55/1,2,3;
 4/5=5,16=3,69=1/1;
 5/5=2,38=5/2;
 7//1,2,3,16;
 1/18=20,19=15,26=3/3(-5);
 2/9=110/2;
 6/7=2,8=2,9=2,10=2,19=2,28=1,40=1/1,7;
 99/9=1/99;
 ----
 o-Ph
 ----
 Symbolic Z-matrix:
 Charge =  0 Multiplicity = 1
 C                    -2.7601   -0.4924    1.356 
 C                    -2.5818   -1.8189    1.4157 
 C                    -1.4284   -2.338     0.9847 
 C                    -0.4639   -1.5139    0.5538 
 C                    -0.6027   -0.1684    0.5318 
 C                    -1.8079    0.348     0.8934 
 C                    -2.1514    1.6703    0.7624 
 O                    -3.2238    2.1114    1.1234 
 O                    -1.3848    2.6136    0.1591 
 C                     0.5186    0.5274    0.2203 
 C                     0.8914    1.6042    0.9426 
 C                     2.0171    2.2878    0.6831 
 C                     2.828     1.894    -0.3081 
 C                     2.507     0.801    -1.0138 
 C                     1.3795    0.1258   -0.7388 
 H                    -3.7578   -0.1476    1.6758 
 H                    -3.382    -2.4809    1.7873 
 H                    -1.2644   -3.4282    1.0224 
 H                     0.4871   -2.0117    0.2972 
 H                    -1.9071    3.4282    0.0885 
 H                     0.3079    1.9244    1.8236 
 H                     2.2929    3.1576    1.303 
 H                     3.7578    2.4459   -0.5233 
 H                     3.1736    0.4588   -1.8236 
 H                     1.1652   -0.7528   -1.3712 
 

 GradGradGradGradGradGradGradGradGradGradGradGradGradGradGradGradGradGrad
 Berny optimization.
 Initialization pass.
                           ----------------------------
                           !    Initial Parameters    !
                           ! (Angstroms and Degrees)  !
 --------------------------                            --------------------------
 ! Name  Definition              Value          Derivative Info.                !
 --------------------------------------------------------------------------------
 ! R1    R(1,2)                  1.3398         estimate D2E/DX2                !
 ! R2    R(1,6)                  1.3516         estimate D2E/DX2                !
 ! R3    R(1,16)                 1.103          estimate D2E/DX2                !
 ! R4    R(2,3)                  1.3362         estimate D2E/DX2                !
 ! R5    R(2,17)                 1.103          estimate D2E/DX2                !
 ! R6    R(3,4)                  1.3398         estimate D2E/DX2                !
 ! R7    R(3,18)                 1.1031         estimate D2E/DX2                !
 ! R8    R(4,5)                  1.3528         estimate D2E/DX2                !
 ! R9    R(4,19)                 1.1037         estimate D2E/DX2                !
 ! R10   R(5,6)                  1.3601         estimate D2E/DX2                !
 ! R11   R(5,10)                 1.3559         estimate D2E/DX2                !
 ! R12   R(6,7)                  1.3725         estimate D2E/DX2                !
 ! R13   R(7,8)                  1.2145         estimate D2E/DX2                !
 ! R14   R(7,9)                  1.357          estimate D2E/DX2                !
 ! R15   R(9,20)                 0.9702         estimate D2E/DX2                !
 ! R16   R(10,11)                1.3491         estimate D2E/DX2                !
 ! R17   R(10,15)                1.3499         estimate D2E/DX2                !
 ! R18   R(11,12)                1.3423         estimate D2E/DX2                !
 ! R19   R(11,21)                1.1042         estimate D2E/DX2                !
 ! R20   R(12,13)                1.3398         estimate D2E/DX2                !
 ! R21   R(12,22)                1.1031         estimate D2E/DX2                !
 ! R22   R(13,14)                1.34           estimate D2E/DX2                !
 ! R23   R(13,23)                1.1025         estimate D2E/DX2                !
 ! R24   R(14,15)                1.3427         estimate D2E/DX2                !
 ! R25   R(14,24)                1.1033         estimate D2E/DX2                !
 ! R26   R(15,25)                1.1035         estimate D2E/DX2                !
 ! A1    A(2,1,6)              122.4866         estimate D2E/DX2                !
 ! A2    A(2,1,16)             114.6437         estimate D2E/DX2                !
 ! A3    A(6,1,16)             122.8264         estimate D2E/DX2                !
 ! A4    A(1,2,3)              119.0211         estimate D2E/DX2                !
 ! A5    A(1,2,17)             120.8436         estimate D2E/DX2                !
 ! A6    A(3,2,17)             120.1129         estimate D2E/DX2                !
 ! A7    A(2,3,4)              119.0887         estimate D2E/DX2                !
 ! A8    A(2,3,18)             120.0816         estimate D2E/DX2                !
 ! A9    A(4,3,18)             120.7876         estimate D2E/DX2                !
 ! A10   A(3,4,5)              122.8971         estimate D2E/DX2                !
 ! A11   A(3,4,19)             114.6864         estimate D2E/DX2                !
 ! A12   A(5,4,19)             122.2243         estimate D2E/DX2                !
 ! A13   A(4,5,6)              117.659          estimate D2E/DX2                !
 ! A14   A(4,5,10)             115.4215         estimate D2E/DX2                !
 ! A15   A(6,5,10)             126.8            estimate D2E/DX2                !
 ! A16   A(1,6,5)              118.6303         estimate D2E/DX2                !
 ! A17   A(1,6,7)              117.0899         estimate D2E/DX2                !
 ! A18   A(5,6,7)              124.2077         estimate D2E/DX2                !
 ! A19   A(6,7,8)              122.8583         estimate D2E/DX2                !
 ! A20   A(6,7,9)              124.8044         estimate D2E/DX2                !
 ! A21   A(8,7,9)              112.2416         estimate D2E/DX2                !
 ! A22   A(7,9,20)             108.1719         estimate D2E/DX2                !
 ! A23   A(5,10,11)            121.0034         estimate D2E/DX2                !
 ! A24   A(5,10,15)            122.5443         estimate D2E/DX2                !
 ! A25   A(11,10,15)           116.2058         estimate D2E/DX2                !
 ! A26   A(10,11,12)           122.3229         estimate D2E/DX2                !
 ! A27   A(10,11,21)           120.8374         estimate D2E/DX2                !
 ! A28   A(12,11,21)           116.7269         estimate D2E/DX2                !
 ! A29   A(11,12,13)           120.0591         estimate D2E/DX2                !
 ! A30   A(11,12,22)           120.1707         estimate D2E/DX2                !
 ! A31   A(13,12,22)           119.7465         estimate D2E/DX2                !
 ! A32   A(12,13,14)           118.9702         estimate D2E/DX2                !
 ! A33   A(12,13,23)           120.5115         estimate D2E/DX2                !
 ! A34   A(14,13,23)           120.5007         estimate D2E/DX2                !
 ! A35   A(13,14,15)           120.2296         estimate D2E/DX2                !
 ! A36   A(13,14,24)           119.6561         estimate D2E/DX2                !
 ! A37   A(15,14,24)           120.1143         estimate D2E/DX2                !
 ! A38   A(10,15,14)           122.1033         estimate D2E/DX2                !
 ! A39   A(10,15,25)           121.3435         estimate D2E/DX2                !
 ! A40   A(14,15,25)           116.4921         estimate D2E/DX2                !
 ! D1    D(6,1,2,3)             -1.008          estimate D2E/DX2                !
 ! D2    D(6,1,2,17)          -179.2841         estimate D2E/DX2                !
 ! D3    D(16,1,2,3)           176.6614         estimate D2E/DX2                !
 ! D4    D(16,1,2,17)           -1.6147         estimate D2E/DX2                !
 ! D5    D(2,1,6,5)             -3.0247         estimate D2E/DX2                !
 ! D6    D(2,1,6,7)            174.0211         estimate D2E/DX2                !
 ! D7    D(16,1,6,5)           179.4963         estimate D2E/DX2                !
 ! D8    D(16,1,6,7)            -3.4579         estimate D2E/DX2                !
 ! D9    D(1,2,3,4)              2.5643         estimate D2E/DX2                !
 ! D10   D(1,2,3,18)          -179.7771         estimate D2E/DX2                !
 ! D11   D(17,2,3,4)          -179.1467         estimate D2E/DX2                !
 ! D12   D(17,2,3,18)           -1.4881         estimate D2E/DX2                !
 ! D13   D(2,3,4,5)             -0.093          estimate D2E/DX2                !
 ! D14   D(2,3,4,19)           174.9662         estimate D2E/DX2                !
 ! D15   D(18,3,4,5)          -177.7345         estimate D2E/DX2                !
 ! D16   D(18,3,4,19)           -2.6753         estimate D2E/DX2                !
 ! D17   D(3,4,5,6)             -3.8916         estimate D2E/DX2                !
 ! D18   D(3,4,5,10)           172.4065         estimate D2E/DX2                !
 ! D19   D(19,4,5,6)          -178.5839         estimate D2E/DX2                !
 ! D20   D(19,4,5,10)           -2.2858         estimate D2E/DX2                !
 ! D21   D(4,5,6,1)              5.2952         estimate D2E/DX2                !
 ! D22   D(4,5,6,7)           -171.5243         estimate D2E/DX2                !
 ! D23   D(10,5,6,1)          -170.5285         estimate D2E/DX2                !
 ! D24   D(10,5,6,7)            12.6519         estimate D2E/DX2                !
 ! D25   D(4,5,10,11)         -133.7822         estimate D2E/DX2                !
 ! D26   D(4,5,10,15)           40.2961         estimate D2E/DX2                !
 ! D27   D(6,5,10,11)           42.1224         estimate D2E/DX2                !
 ! D28   D(6,5,10,15)         -143.7994         estimate D2E/DX2                !
 ! D29   D(1,6,7,8)              4.9691         estimate D2E/DX2                !
 ! D30   D(1,6,7,9)           -171.1952         estimate D2E/DX2                !
 ! D31   D(5,6,7,8)           -178.1665         estimate D2E/DX2                !
 ! D32   D(5,6,7,9)              5.6692         estimate D2E/DX2                !
 ! D33   D(6,7,9,20)           172.0104         estimate D2E/DX2                !
 ! D34   D(8,7,9,20)            -4.509          estimate D2E/DX2                !
 ! D35   D(5,10,11,12)         177.9288         estimate D2E/DX2                !
 ! D36   D(5,10,11,21)           1.9166         estimate D2E/DX2                !
 ! D37   D(15,10,11,12)          3.4914         estimate D2E/DX2                !
 ! D38   D(15,10,11,21)       -172.5208         estimate D2E/DX2                !
 ! D39   D(5,10,15,14)        -178.0458         estimate D2E/DX2                !
 ! D40   D(5,10,15,25)           4.8974         estimate D2E/DX2                !
 ! D41   D(11,10,15,14)         -3.7022         estimate D2E/DX2                !
 ! D42   D(11,10,15,25)        179.241          estimate D2E/DX2                !
 ! D43   D(10,11,12,13)         -1.175          estimate D2E/DX2                !
 ! D44   D(10,11,12,22)       -179.3991         estimate D2E/DX2                !
 ! D45   D(21,11,12,13)        174.9916         estimate D2E/DX2                !
 ! D46   D(21,11,12,22)         -3.2324         estimate D2E/DX2                !
 ! D47   D(11,12,13,14)         -1.1061         estimate D2E/DX2                !
 ! D48   D(11,12,13,23)       -179.5864         estimate D2E/DX2                !
 ! D49   D(22,12,13,14)        177.1255         estimate D2E/DX2                !
 ! D50   D(22,12,13,23)         -1.3548         estimate D2E/DX2                !
 ! D51   D(12,13,14,15)          0.8949         estimate D2E/DX2                !
 ! D52   D(12,13,14,24)       -179.1808         estimate D2E/DX2                !
 ! D53   D(23,13,14,15)        179.3753         estimate D2E/DX2                !
 ! D54   D(23,13,14,24)         -0.7004         estimate D2E/DX2                !
 ! D55   D(13,14,15,10)          1.6082         estimate D2E/DX2                !
 ! D56   D(13,14,15,25)        178.7997         estimate D2E/DX2                !
 ! D57   D(24,14,15,10)       -178.3158         estimate D2E/DX2                !
 ! D58   D(24,14,15,25)         -1.1242         estimate D2E/DX2                !
 --------------------------------------------------------------------------------
 Trust Radius=3.00D-01 FncErr=1.00D-07 GrdErr=1.00D-06 EigMax=2.50D+02 EigMin=1.00D-04
 Number of steps in this run=    134 maximum allowed number of steps=    150.
 GradGradGradGradGradGradGradGradGradGradGradGradGradGradGradGradGradGrad

                          Input orientation:                          
 ---------------------------------------------------------------------
 Center     Atomic      Atomic             Coordinates (Angstroms)
 Number     Number       Type             X           Y           Z
 ---------------------------------------------------------------------
      1          6           0       -2.760100   -0.492400    1.356000
      2          6           0       -2.581800   -1.818900    1.415700
      3          6           0       -1.428400   -2.338000    0.984700
      4          6           0       -0.463900   -1.513900    0.553800
      5          6           0       -0.602700   -0.168400    0.531800
      6          6           0       -1.807900    0.348000    0.893400
      7          6           0       -2.151400    1.670300    0.762400
      8          8           0       -3.223800    2.111400    1.123400
      9          8           0       -1.384800    2.613600    0.159100
     10          6           0        0.518600    0.527400    0.220300
     11          6           0        0.891400    1.604200    0.942600
     12          6           0        2.017100    2.287800    0.683100
     13          6           0        2.828000    1.894000   -0.308100
     14          6           0        2.507000    0.801000   -1.013800
     15          6           0        1.379500    0.125800   -0.738800
     16          1           0       -3.757800   -0.147600    1.675800
     17          1           0       -3.382000   -2.480900    1.787300
     18          1           0       -1.264400   -3.428200    1.022400
     19          1           0        0.487100   -2.011700    0.297200
     20          1           0       -1.907100    3.428200    0.088500
     21          1           0        0.307900    1.924400    1.823600
     22          1           0        2.292900    3.157600    1.303000
     23          1           0        3.757800    2.445900   -0.523300
     24          1           0        3.173600    0.458800   -1.823600
     25          1           0        1.165200   -0.752800   -1.371200
 ---------------------------------------------------------------------
                    Distance matrix (angstroms):
                    1          2          3          4          5
     1  C    0.000000
     2  C    1.339760   0.000000
     3  C    2.305977   1.336247   0.000000
     4  C    2.638091   2.306815   1.339804   0.000000
     5  C    2.332093   2.724384   2.365177   1.352819   0.000000
     6  C    1.351649   2.359486   2.714213   2.321279   1.360122
     7  C    2.323822   3.575830   4.079046   3.609751   2.415050
     8  O    2.654975   3.993102   4.799985   4.591764   3.523868
     9  O    3.601563   4.760137   5.020145   4.247364   2.913779
    10  C    3.616584   4.067749   3.547624   2.289855   1.355907
    11  C    4.230849   4.899444   4.574296   3.422068   2.354401
    12  C    5.568119   6.208991   5.775851   4.541476   3.594324
    13  C    6.300079   6.784029   6.139878   4.815938   4.090065
    14  C    5.918714   6.217896   5.416151   4.079507   3.605392
    15  C    4.680454   4.910766   4.114008   2.785239   2.372782
    16  H    1.102980   2.060066   3.271326   3.738374   3.356162
    17  H    2.127654   1.103019   2.116870   3.312389   3.827329
    18  H    3.311696   2.116619   1.103111   2.127188   3.362266
    19  H    3.738133   3.272058   2.061133   1.103653   2.154172
    20  H    4.207763   5.454240   5.855031   5.169495   3.851429
    21  H    3.933471   4.746477   4.678306   3.745661   2.622547
    22  H    6.233628   6.967134   6.644622   5.475779   4.476776
    23  H    7.392455   7.882815   7.215014   5.887522   5.192472
    24  H    6.798782   6.986101   6.073470   4.772314   4.494634
    25  H    4.786795   4.789926   3.845762   2.634173   2.662405
                    6          7          8          9         10
     6  C    0.000000
     7  C    1.372454   0.000000
     8  O    2.273159   1.214468   0.000000
     9  O    2.418916   1.357005   2.136352   0.000000
    10  C    2.428549   2.954487   4.162956   2.824696   0.000000
    11  C    2.977697   3.048848   4.150278   2.610335   1.349146
    12  C    4.293911   4.214735   5.262320   3.457404   2.357688
    13  C    5.032424   5.098082   6.222599   4.299277   2.734983
    14  C    4.739302   5.060757   6.255145   4.450542   2.356182
    15  C    3.587892   4.135981   5.347969   3.825798   1.349927
    16  H    2.158675   2.592215   2.386081   3.944076   4.567461
    17  H    3.358500   4.449411   4.642737   5.709096   5.169143
    18  H    3.817292   5.181609   5.876786   6.104353   4.412394
    19  H    3.345245   4.553594   5.608328   4.991641   2.540460
    20  H    3.185175   1.898430   2.130418   0.970234   3.783653
    21  H    2.797663   2.690515   3.605295   2.472001   2.136954
    22  H    4.987804   4.717638   5.617897   3.889720   3.352362
    23  H    6.114347   6.096985   7.180964   5.190388   3.837447
    24  H    5.675360   6.042413   7.234820   5.417866   3.351307
    25  H    3.896087   4.628552   5.804308   4.491878   2.142400
                   11         12         13         14         15
    11  C    0.000000
    12  C    1.342330   0.000000
    13  C    2.323500   1.339819   0.000000
    14  C    2.661352   2.308689   1.340038   0.000000
    15  C    2.291509   2.665066   2.325981   1.342675   0.000000
    16  H    5.022096   6.345557   7.174730   6.883423   5.683035
    17  H    5.971893   7.287663   7.880010   7.300503   5.987316
    18  H    5.475298   6.599699   6.844252   6.021271   4.766859
    19  H    3.695231   4.579904   4.593549   3.702701   2.537436
    20  H    3.447907   4.129577   4.993219   5.253715   4.732020
    21  H    1.104156   2.086663   3.300905   3.761503   3.308955
    22  H    2.123003   1.103129   2.116285   3.311641   3.767633
    23  H    3.327698   2.123778   1.102467   2.123861   3.329507
    24  H    3.764604   3.311537   2.115651   1.103283   2.122846
    25  H    3.314225   3.767112   3.301611   2.083856   1.103536
                   16         17         18         19         20
    16  H    0.000000
    17  H    2.365998   0.000000
    18  H    4.172087   2.442679   0.000000
    19  H    4.836795   4.172587   2.366461   0.000000
    20  H    4.327928   6.322872   6.949493   5.947122   0.000000
    21  H    4.565626   5.746594   5.635989   4.225505   3.190331
    22  H    6.904658   8.014469   7.490386   5.567244   4.380438
    23  H    8.249032   8.977136   7.881417   5.589356   5.781895
    24  H    7.788314   8.040916   6.550140   4.221190   6.187647
    25  H    5.821203   5.799955   4.334748   2.197318   5.389853
                   21         22         23         24         25
    21  H    0.000000
    22  H    2.394166   0.000000
    23  H    4.204963   2.447002   0.000000
    24  H    4.864390   4.223125   2.445534   0.000000
    25  H    4.255480   4.869731   4.203830   2.388789   0.000000
 Stoichiometry    C13H10O2
 Framework group  C1[X(C13H10O2)]
 Deg. of freedom    69
 Full point group                 C1      NOp   1
 Largest Abelian subgroup         C1      NOp   1
 Largest concise Abelian subgroup C1      NOp   1
                         Standard orientation:                         
 ---------------------------------------------------------------------
 Center     Atomic      Atomic             Coordinates (Angstroms)
 Number     Number       Type             X           Y           Z
 ---------------------------------------------------------------------
      1          6           0       -2.679810   -0.033556    0.153889
      2          6           0       -3.042781   -1.319956    0.245447
      3          6           0       -2.104507   -2.266612    0.150350
      4          6           0       -0.822123   -1.901746    0.018290
      5          6           0       -0.426901   -0.608695   -0.025749
      6          6           0       -1.393726    0.347854   -0.011854
      7          6           0       -1.159845    1.684371   -0.218376
      8          8           0       -2.037530    2.522298   -0.168578
      9          8           0        0.038229    2.215736   -0.570129
     10          6           0        0.913942   -0.408711   -0.000648
     11          6           0        1.463100    0.519226    0.810248
     12          6           0        2.789432    0.711330    0.886335
     13          6           0        3.620252   -0.047342    0.158825
     14          6           0        3.106424   -1.007746   -0.621757
     15          6           0        1.777593   -1.189923   -0.683377
     16          1           0       -3.517080    0.683825    0.184028
     17          1           0       -4.102177   -1.601228    0.368803
     18          1           0       -2.384340   -3.331389    0.219609
     19          1           0       -0.101219   -2.737272    0.033810
     20          1           0       -0.095621    3.154575   -0.775119
     21          1           0        0.834890    1.115399    1.495150
     22          1           0        3.200929    1.473741    1.569191
     23          1           0        4.711146    0.099472    0.220693
     24          1           0        3.781035   -1.648011   -1.215216
     25          1           0        1.420541   -1.984344   -1.361022
 ---------------------------------------------------------------------
 Rotational constants (GHZ):           1.0690481           0.5398975           0.3827842
 Standard basis: Aug-CC-pVTZ (5D, 7F)
 There are  1075 symmetry adapted cartesian basis functions of A   symmetry.
 There are   920 symmetry adapted basis functions of A   symmetry.
   920 basis functions,  1350 primitive gaussians,  1075 cartesian basis functions
    52 alpha electrons       52 beta electrons
       nuclear repulsion energy       941.5119541214 Hartrees.
 NAtoms=   25 NActive=   25 NUniq=   25 SFac= 1.00D+00 NAtFMM=   60 NAOKFM=F Big=F
 Integral buffers will be    131072 words long.
 Raffenetti 2 integral format.
 Two-electron integral symmetry is turned on.
 One-electron integrals computed using PRISM.
 NBasis=   920 RedAO= T EigKep=  1.05D-06  NBF=   920
 NBsUse=   912 1.00D-06 EigRej=  9.50D-07 NBFU=   912
 ExpMin= 2.53D-02 ExpMax= 1.53D+04 ExpMxC= 5.22D+02 IAcc=3 IRadAn=         5 AccDes= 0.00D+00
 Harris functional with IExCor= 1009 and IRadAn=       5 diagonalized for initial guess.
 HarFok:  IExCor= 1009 AccDes= 0.00D+00 IRadAn=         5 IDoV= 1 UseB2=F ITyADJ=14
 ICtDFT=  3500011 ScaDFX=  1.000000  1.000000  1.000000  1.000000
 FoFCou: FMM=F IPFlag=           0 FMFlag=      100000 FMFlg1=           0
         NFxFlg=           0 DoJE=T BraDBF=F KetDBF=T FulRan=T
         wScrn=  0.000000 ICntrl=       500 IOpCl=  0 I1Cent=   200000004 NGrid=           0
         NMat0=    1 NMatS0=      1 NMatT0=    0 NMatD0=    1 NMtDS0=    0 NMtDT0=    0
 Petite list used in FoFCou.
 Requested convergence on RMS density matrix=1.00D-08 within 128 cycles.
 Requested convergence on MAX density matrix=1.00D-06.
 Requested convergence on             energy=1.00D-06.
 No special actions if energy rises.
 SCF Done:  E(RM062X) =  -651.787408978     A.U. after   14 cycles
            NFock= 14  Conv=0.46D-08     -V/T= 2.0022

 **********************************************************************

            Population analysis using the SCF Density.

 **********************************************************************

 Orbital symmetries:
       Occupied  (A) (A) (A) (A) (A) (A) (A) (A) (A) (A) (A) (A)
                 (A) (A) (A) (A) (A) (A) (A) (A) (A) (A) (A) (A)
                 (A) (A) (A) (A) (A) (A) (A) (A) (A) (A) (A) (A)
                 (A) (A) (A) (A) (A) (A) (A) (A) (A) (A) (A) (A)
                 (A) (A) (A) (A)
       Virtual   (A) (A) (A) (A) (A) (A) (A) (A) (A) (A) (A) (A)
                 (A) (A) (A) (A) (A) (A) (A) (A) (A) (A) (A) (A)
                 (A) (A) (A) (A) (A) (A) (A) (A) (A) (A) (A) (A)
                 (A) (A) (A) (A) (A) (A) (A) (A) (A) (A) (A) (A)
                 (A) (A) (A) (A) (A) (A) (A) (A) (A) (A) (A) (A)
                 (A) (A) (A) (A) (A) (A) (A) (A) (A) (A) (A) (A)
                 (A) (A) (A) (A) (A) (A) (A) (A) (A) (A) (A) (A)
                 (A) (A) (A) (A) (A) (A) (A) (A) (A) (A) (A) (A)
                 (A) (A) (A) (A) (A) (A) (A) (A) (A) (A) (A) (A)
                 (A) (A) (A) (A) (A) (A) (A) (A) (A) (A) (A) (A)
                 (A) (A) (A) (A) (A) (A) (A) (A) (A) (A) (A) (A)
                 (A) (A) (A) (A) (A) (A) (A) (A) (A) (A) (A) (A)
                 (A) (A) (A) (A) (A) (A) (A) (A) (A) (A) (A) (A)
                 (A) (A) (A) (A) (A) (A) (A) (A) (A) (A) (A) (A)
                 (A) (A) (A) (A) (A) (A) (A) (A) (A) (A) (A) (A)
                 (A) (A) (A) (A) (A) (A) (A) (A) (A) (A) (A) (A)
                 (A) (A) (A) (A) (A) (A) (A) (A) (A) (A) (A) (A)
                 (A) (A) (A) (A) (A) (A) (A) (A) (A) (A) (A) (A)
                 (A) (A) (A) (A) (A) (A) (A) (A) (A) (A) (A) (A)
                 (A) (A) (A) (A) (A) (A) (A) (A) (A) (A) (A) (A)
                 (A) (A) (A) (A) (A) (A) (A) (A) (A) (A) (A) (A)
                 (A) (A) (A) (A) (A) (A) (A) (A) (A) (A) (A) (A)
                 (A) (A) (A) (A) (A) (A) (A) (A) (A) (A) (A) (A)
                 (A) (A) (A) (A) (A) (A) (A) (A) (A) (A) (A) (A)
                 (A) (A) (A) (A) (A) (A) (A) (A) (A) (A) (A) (A)
                 (A) (A) (A) (A) (A) (A) (A) (A) (A) (A) (A) (A)
                 (A) (A) (A) (A) (A) (A) (A) (A) (A) (A) (A) (A)
                 (A) (A) (A) (A) (A) (A) (A) (A) (A) (A) (A) (A)
                 (A) (A) (A) (A) (A) (A) (A) (A) (A) (A) (A) (A)
                 (A) (A) (A) (A) (A) (A) (A) (A) (A) (A) (A) (A)
                 (A) (A) (A) (A) (A) (A) (A) (A) (A) (A) (A) (A)
                 (A) (A) (A) (A) (A) (A) (A) (A) (A) (A) (A) (A)
                 (A) (A) (A) (A) (A) (A) (A) (A) (A) (A) (A) (A)
                 (A) (A) (A) (A) (A) (A) (A) (A) (A) (A) (A) (A)
                 (A) (A) (A) (A) (A) (A) (A) (A) (A) (A) (A) (A)
                 (A) (A) (A) (A) (A) (A) (A) (A) (A) (A) (A) (A)
                 (A) (A) (A) (A) (A) (A) (A) (A) (A) (A) (A) (A)
                 (A) (A) (A) (A) (A) (A) (A) (A) (A) (A) (A) (A)
                 (A) (A) (A) (A) (A) (A) (A) (A) (A) (A) (A) (A)
                 (A) (A) (A) (A) (A) (A) (A) (A) (A) (A) (A) (A)
                 (A) (A) (A) (A) (A) (A) (A) (A) (A) (A) (A) (A)
                 (A) (A) (A) (A) (A) (A) (A) (A) (A) (A) (A) (A)
                 (A) (A) (A) (A) (A) (A) (A) (A) (A) (A) (A) (A)
                 (A) (A) (A) (A) (A) (A) (A) (A) (A) (A) (A) (A)
                 (A) (A) (A) (A) (A) (A) (A) (A) (A) (A) (A) (A)
                 (A) (A) (A) (A) (A) (A) (A) (A) (A) (A) (A) (A)
                 (A) (A) (A) (A) (A) (A) (A) (A) (A) (A) (A) (A)
                 (A) (A) (A) (A) (A) (A) (A) (A) (A) (A) (A) (A)
                 (A) (A) (A) (A) (A) (A) (A) (A) (A) (A) (A) (A)
                 (A) (A) (A) (A) (A) (A) (A) (A) (A) (A) (A) (A)
                 (A) (A) (A) (A) (A) (A) (A) (A) (A) (A) (A) (A)
                 (A) (A) (A) (A) (A) (A) (A) (A) (A) (A) (A) (A)
                 (A) (A) (A) (A) (A) (A) (A) (A) (A) (A) (A) (A)
                 (A) (A) (A) (A) (A) (A) (A) (A) (A) (A) (A) (A)
                 (A) (A) (A) (A) (A) (A) (A) (A) (A) (A) (A) (A)
                 (A) (A) (A) (A) (A) (A) (A) (A) (A) (A) (A) (A)
                 (A) (A) (A) (A) (A) (A) (A) (A) (A) (A) (A) (A)
                 (A) (A) (A) (A) (A) (A) (A) (A) (A) (A) (A) (A)
                 (A) (A) (A) (A) (A) (A) (A) (A) (A) (A) (A) (A)
                 (A) (A) (A) (A) (A) (A) (A) (A) (A) (A) (A) (A)
                 (A) (A) (A) (A) (A) (A) (A) (A) (A) (A) (A) (A)
                 (A) (A) (A) (A) (A) (A) (A) (A) (A) (A) (A) (A)
                 (A) (A) (A) (A) (A) (A) (A) (A) (A) (A) (A) (A)
                 (A) (A) (A) (A) (A) (A) (A) (A) (A) (A) (A) (A)
                 (A) (A) (A) (A) (A) (A) (A) (A) (A) (A) (A) (A)
                 (A) (A) (A) (A) (A) (A) (A) (A) (A) (A) (A) (A)
                 (A) (A) (A) (A) (A) (A) (A) (A) (A) (A) (A) (A)
                 (A) (A) (A) (A) (A) (A) (A) (A) (A) (A) (A) (A)
                 (A) (A) (A) (A) (A) (A) (A) (A) (A) (A) (A) (A)
                 (A) (A) (A) (A) (A) (A) (A) (A) (A) (A) (A) (A)
                 (A) (A) (A) (A) (A) (A) (A) (A) (A) (A) (A) (A)
                 (A) (A) (A) (A) (A) (A) (A) (A)
 The electronic state is 1-A.
 Alpha  occ. eigenvalues --  -19.65779 -19.60041 -10.66936 -10.55717 -10.55533
 Alpha  occ. eigenvalues --  -10.55060 -10.55051 -10.54430 -10.54286 -10.53798
 Alpha  occ. eigenvalues --  -10.53677 -10.53568 -10.53488 -10.53334 -10.53200
 Alpha  occ. eigenvalues --   -1.23580  -1.12168  -1.02944  -0.99163  -0.92031
 Alpha  occ. eigenvalues --   -0.89957  -0.85866  -0.84049  -0.77582  -0.73753
 Alpha  occ. eigenvalues --   -0.70576  -0.68134  -0.67395  -0.63864  -0.59646
 Alpha  occ. eigenvalues --   -0.58170  -0.56395  -0.55513  -0.54623  -0.53683
 Alpha  occ. eigenvalues --   -0.52569  -0.50339  -0.50188  -0.49087  -0.48441
 Alpha  occ. eigenvalues --   -0.47065  -0.45528  -0.43733  -0.41939  -0.40742
 Alpha  occ. eigenvalues --   -0.39874  -0.39049  -0.35798  -0.35096  -0.33233
 Alpha  occ. eigenvalues --   -0.31627  -0.29151
 Alpha virt. eigenvalues --   -0.04015  -0.00962  -0.00330  -0.00183   0.00252
 Alpha virt. eigenvalues --    0.01031   0.01312   0.01729   0.02181   0.02597
 Alpha virt. eigenvalues --    0.02936   0.03507   0.03789   0.04536   0.04740
 Alpha virt. eigenvalues --    0.05254   0.05667   0.05815   0.06581   0.07042
 Alpha virt. eigenvalues --    0.07394   0.07531   0.07815   0.07960   0.08088
 Alpha virt. eigenvalues --    0.08375   0.08812   0.08882   0.08970   0.09611
 Alpha virt. eigenvalues --    0.09855   0.10024   0.10154   0.10403   0.11070
 Alpha virt. eigenvalues --    0.11386   0.11644   0.11740   0.12154   0.12583
 Alpha virt. eigenvalues --    0.12665   0.12935   0.13571   0.14086   0.14223
 Alpha virt. eigenvalues --    0.14818   0.15201   0.15785   0.16157   0.16829
 Alpha virt. eigenvalues --    0.16903   0.17439   0.17939   0.18679   0.18912
 Alpha virt. eigenvalues --    0.19011   0.19755   0.19874   0.20158   0.20438
 Alpha virt. eigenvalues --    0.20615   0.21255   0.21288   0.21363   0.21555
 Alpha virt. eigenvalues --    0.22005   0.22364   0.22726   0.23009   0.23461
 Alpha virt. eigenvalues --    0.23619   0.24165   0.24503   0.24795   0.24929
 Alpha virt. eigenvalues --    0.25523   0.25720   0.26064   0.26326   0.26635
 Alpha virt. eigenvalues --    0.26742   0.27153   0.27385   0.27497   0.28059
 Alpha virt. eigenvalues --    0.28375   0.28785   0.29340   0.29424   0.29873
 Alpha virt. eigenvalues --    0.30553   0.30830   0.31248   0.31606   0.31702
 Alpha virt. eigenvalues --    0.32373   0.33305   0.33638   0.33955   0.34536
 Alpha virt. eigenvalues --    0.34970   0.35118   0.35623   0.35879   0.36215
 Alpha virt. eigenvalues --    0.36473   0.36752   0.36803   0.37246   0.37551
 Alpha virt. eigenvalues --    0.38183   0.38440   0.38684   0.38822   0.39437
 Alpha virt. eigenvalues --    0.39686   0.39798   0.39964   0.40288   0.40565
 Alpha virt. eigenvalues --    0.40844   0.41030   0.41322   0.41794   0.41974
 Alpha virt. eigenvalues --    0.42131   0.42611   0.42779   0.43200   0.43429
 Alpha virt. eigenvalues --    0.43592   0.43978   0.44264   0.44579   0.44779
 Alpha virt. eigenvalues --    0.45380   0.45544   0.45676   0.46076   0.46723
 Alpha virt. eigenvalues --    0.46999   0.47271   0.47823   0.48104   0.48600
 Alpha virt. eigenvalues --    0.48745   0.49371   0.49558   0.49654   0.50439
 Alpha virt. eigenvalues --    0.51433   0.51575   0.52519   0.52770   0.53216
 Alpha virt. eigenvalues --    0.53889   0.54831   0.55209   0.55438   0.55910
 Alpha virt. eigenvalues --    0.56772   0.57046   0.57198   0.57674   0.58146
 Alpha virt. eigenvalues --    0.59009   0.59821   0.60199   0.60454   0.60903
 Alpha virt. eigenvalues --    0.61348   0.61730   0.61839   0.61908   0.63080
 Alpha virt. eigenvalues --    0.63602   0.63741   0.64543   0.64911   0.65267
 Alpha virt. eigenvalues --    0.65673   0.66387   0.67163   0.67247   0.67755
 Alpha virt. eigenvalues --    0.68244   0.69249   0.69958   0.70241   0.70889
 Alpha virt. eigenvalues --    0.71384   0.71564   0.72011   0.72551   0.73097
 Alpha virt. eigenvalues --    0.73319   0.73448   0.73679   0.74301   0.74836
 Alpha virt. eigenvalues --    0.75140   0.75303   0.75746   0.75942   0.76294
 Alpha virt. eigenvalues --    0.76835   0.77153   0.77727   0.77946   0.78051
 Alpha virt. eigenvalues --    0.79176   0.79398   0.79474   0.80040   0.80315
 Alpha virt. eigenvalues --    0.80702   0.81091   0.81447   0.82117   0.82274
 Alpha virt. eigenvalues --    0.82927   0.83172   0.83695   0.84083   0.84352
 Alpha virt. eigenvalues --    0.84560   0.85215   0.85801   0.86032   0.86359
 Alpha virt. eigenvalues --    0.86641   0.86831   0.87988   0.88439   0.88610
 Alpha virt. eigenvalues --    0.88969   0.89691   0.90432   0.90825   0.91187
 Alpha virt. eigenvalues --    0.91964   0.92093   0.92388   0.92840   0.93358
 Alpha virt. eigenvalues --    0.93567   0.93997   0.94198   0.94687   0.94730
 Alpha virt. eigenvalues --    0.95380   0.95685   0.96587   0.96633   0.97199
 Alpha virt. eigenvalues --    0.97593   0.97935   0.98198   0.98794   0.99017
 Alpha virt. eigenvalues --    0.99639   1.00282   1.00544   1.01013   1.01273
 Alpha virt. eigenvalues --    1.01821   1.02235   1.02380   1.02830   1.03385
 Alpha virt. eigenvalues --    1.03566   1.04116   1.04613   1.05087   1.05376
 Alpha virt. eigenvalues --    1.05638   1.06379   1.06583   1.06833   1.07120
 Alpha virt. eigenvalues --    1.07616   1.08146   1.08312   1.08621   1.08923
 Alpha virt. eigenvalues --    1.09337   1.10210   1.10329   1.11501   1.11658
 Alpha virt. eigenvalues --    1.12112   1.12590   1.12993   1.13835   1.14506
 Alpha virt. eigenvalues --    1.14980   1.15115   1.15724   1.16135   1.16240
 Alpha virt. eigenvalues --    1.16812   1.17314   1.17653   1.18250   1.19840
 Alpha virt. eigenvalues --    1.20096   1.20207   1.21094   1.21824   1.22410
 Alpha virt. eigenvalues --    1.22966   1.23264   1.23552   1.24671   1.25217
 Alpha virt. eigenvalues --    1.25657   1.26167   1.27106   1.27471   1.28290
 Alpha virt. eigenvalues --    1.28829   1.29347   1.29958   1.30820   1.31549
 Alpha virt. eigenvalues --    1.32705   1.33834   1.34452   1.34857   1.35099
 Alpha virt. eigenvalues --    1.35285   1.36103   1.36849   1.37665   1.38567
 Alpha virt. eigenvalues --    1.39232   1.39378   1.40077   1.40829   1.41221
 Alpha virt. eigenvalues --    1.41659   1.42274   1.42318   1.42820   1.43533
 Alpha virt. eigenvalues --    1.43890   1.44805   1.45357   1.45818   1.46053
 Alpha virt. eigenvalues --    1.47145   1.47782   1.48230   1.49672   1.50618
 Alpha virt. eigenvalues --    1.51003   1.51199   1.52198   1.53215   1.53979
 Alpha virt. eigenvalues --    1.54307   1.55120   1.55611   1.56067   1.56837
 Alpha virt. eigenvalues --    1.58362   1.58914   1.59443   1.59827   1.60775
 Alpha virt. eigenvalues --    1.60844   1.61286   1.62520   1.62912   1.63016
 Alpha virt. eigenvalues --    1.63749   1.64861   1.65468   1.65629   1.66226
 Alpha virt. eigenvalues --    1.67313   1.67711   1.68609   1.68928   1.69328
 Alpha virt. eigenvalues --    1.69560   1.70186   1.70735   1.70929   1.71826
 Alpha virt. eigenvalues --    1.72235   1.72611   1.73544   1.74670   1.75379
 Alpha virt. eigenvalues --    1.75651   1.75816   1.76596   1.77086   1.77703
 Alpha virt. eigenvalues --    1.78581   1.78837   1.80227   1.81844   1.82286
 Alpha virt. eigenvalues --    1.82692   1.83080   1.83324   1.83962   1.84206
 Alpha virt. eigenvalues --    1.85273   1.85853   1.86349   1.87808   1.88384
 Alpha virt. eigenvalues --    1.89143   1.89734   1.90238   1.90660   1.91495
 Alpha virt. eigenvalues --    1.91955   1.92385   1.93178   1.94012   1.94139
 Alpha virt. eigenvalues --    1.95167   1.95865   1.96876   1.97051   1.97642
 Alpha virt. eigenvalues --    1.98069   1.98891   1.99381   1.99916   2.00984
 Alpha virt. eigenvalues --    2.01677   2.02305   2.02581   2.03265   2.03615
 Alpha virt. eigenvalues --    2.03940   2.05428   2.06719   2.08055   2.08601
 Alpha virt. eigenvalues --    2.09648   2.10511   2.11270   2.13035   2.13296
 Alpha virt. eigenvalues --    2.14000   2.14179   2.14969   2.16002   2.16791
 Alpha virt. eigenvalues --    2.17957   2.18857   2.19192   2.19790   2.21364
 Alpha virt. eigenvalues --    2.22519   2.23458   2.24218   2.24649   2.25460
 Alpha virt. eigenvalues --    2.25950   2.27161   2.28806   2.29024   2.30191
 Alpha virt. eigenvalues --    2.32470   2.32690   2.33497   2.34561   2.35061
 Alpha virt. eigenvalues --    2.35757   2.36714   2.38336   2.39224   2.39341
 Alpha virt. eigenvalues --    2.40217   2.42046   2.42399   2.43746   2.45289
 Alpha virt. eigenvalues --    2.46032   2.46879   2.47766   2.48644   2.49456
 Alpha virt. eigenvalues --    2.50925   2.51481   2.52752   2.53955   2.54738
 Alpha virt. eigenvalues --    2.56085   2.57067   2.57896   2.59764   2.61375
 Alpha virt. eigenvalues --    2.62679   2.63688   2.65192   2.65817   2.67625
 Alpha virt. eigenvalues --    2.69328   2.70427   2.71053   2.72390   2.73843
 Alpha virt. eigenvalues --    2.74690   2.77538   2.79058   2.81831   2.83109
 Alpha virt. eigenvalues --    2.84065   2.85596   2.86653   2.88559   2.90641
 Alpha virt. eigenvalues --    2.91975   2.92374   2.94315   2.94709   2.95899
 Alpha virt. eigenvalues --    2.96995   2.97350   2.98790   3.00356   3.02098
 Alpha virt. eigenvalues --    3.02769   3.03888   3.03998   3.06182   3.06918
 Alpha virt. eigenvalues --    3.07348   3.07749   3.08202   3.09500   3.09881
 Alpha virt. eigenvalues --    3.11147   3.11831   3.12545   3.13372   3.14603
 Alpha virt. eigenvalues --    3.15102   3.16958   3.17259   3.18132   3.18546
 Alpha virt. eigenvalues --    3.19792   3.20173   3.20989   3.21935   3.22432
 Alpha virt. eigenvalues --    3.23208   3.24019   3.24381   3.25294   3.25883
 Alpha virt. eigenvalues --    3.26457   3.26621   3.27700   3.27752   3.28457
 Alpha virt. eigenvalues --    3.30090   3.30482   3.31582   3.32432   3.32978
 Alpha virt. eigenvalues --    3.34003   3.34525   3.35218   3.36208   3.36909
 Alpha virt. eigenvalues --    3.38669   3.39064   3.40108   3.41080   3.41720
 Alpha virt. eigenvalues --    3.43332   3.43669   3.44520   3.44838   3.45602
 Alpha virt. eigenvalues --    3.46566   3.47840   3.48940   3.49708   3.50507
 Alpha virt. eigenvalues --    3.51126   3.51341   3.53160   3.53571   3.54747
 Alpha virt. eigenvalues --    3.55093   3.55513   3.56515   3.57381   3.58241
 Alpha virt. eigenvalues --    3.58558   3.59756   3.59936   3.60948   3.61255
 Alpha virt. eigenvalues --    3.61843   3.63497   3.63806   3.63928   3.65118
 Alpha virt. eigenvalues --    3.65806   3.66367   3.67038   3.67146   3.68435
 Alpha virt. eigenvalues --    3.68808   3.70293   3.71567   3.71669   3.72364
 Alpha virt. eigenvalues --    3.72889   3.73811   3.74652   3.75326   3.76180
 Alpha virt. eigenvalues --    3.76890   3.77055   3.78003   3.79010   3.79845
 Alpha virt. eigenvalues --    3.80967   3.81664   3.81739   3.83254   3.84424
 Alpha virt. eigenvalues --    3.85350   3.85781   3.86530   3.86709   3.87753
 Alpha virt. eigenvalues --    3.88560   3.89852   3.90024   3.90657   3.91068
 Alpha virt. eigenvalues --    3.91751   3.92836   3.93777   3.94534   3.95440
 Alpha virt. eigenvalues --    3.96090   3.96171   3.96949   3.97693   3.98094
 Alpha virt. eigenvalues --    3.98682   3.99875   4.00645   4.01206   4.01817
 Alpha virt. eigenvalues --    4.02623   4.03529   4.05597   4.05879   4.06501
 Alpha virt. eigenvalues --    4.07100   4.07419   4.08998   4.09434   4.10030
 Alpha virt. eigenvalues --    4.11487   4.11769   4.13552   4.14231   4.15223
 Alpha virt. eigenvalues --    4.16220   4.16807   4.17034   4.17968   4.18911
 Alpha virt. eigenvalues --    4.19650   4.20471   4.22136   4.22344   4.22783
 Alpha virt. eigenvalues --    4.24073   4.24636   4.26064   4.27133   4.27965
 Alpha virt. eigenvalues --    4.28997   4.32577   4.33179   4.34100   4.34214
 Alpha virt. eigenvalues --    4.34688   4.36259   4.36812   4.38999   4.40828
 Alpha virt. eigenvalues --    4.41048   4.41670   4.42618   4.44593   4.44777
 Alpha virt. eigenvalues --    4.46523   4.47920   4.49263   4.50547   4.51314
 Alpha virt. eigenvalues --    4.51707   4.53110   4.54917   4.57118   4.57932
 Alpha virt. eigenvalues --    4.59659   4.60613   4.61972   4.62404   4.64168
 Alpha virt. eigenvalues --    4.65962   4.66441   4.67647   4.67655   4.68676
 Alpha virt. eigenvalues --    4.69077   4.69552   4.71141   4.71917   4.72842
 Alpha virt. eigenvalues --    4.72943   4.73711   4.74715   4.75825   4.76393
 Alpha virt. eigenvalues --    4.77590   4.78545   4.79162   4.79235   4.80464
 Alpha virt. eigenvalues --    4.81345   4.82776   4.82971   4.84591   4.87484
 Alpha virt. eigenvalues --    4.88689   4.90002   4.90092   4.90594   4.92414
 Alpha virt. eigenvalues --    4.93931   4.94233   4.95902   4.97767   4.98501
 Alpha virt. eigenvalues --    4.99851   5.01190   5.03252   5.04116   5.04881
 Alpha virt. eigenvalues --    5.06311   5.06889   5.07692   5.08791   5.10097
 Alpha virt. eigenvalues --    5.12103   5.12548   5.13153   5.14345   5.16618
 Alpha virt. eigenvalues --    5.17946   5.20483   5.22132   5.23292   5.25943
 Alpha virt. eigenvalues --    5.26156   5.31359   5.33486   5.35928   5.39895
 Alpha virt. eigenvalues --    5.42303   5.42993   5.44144   5.46717   5.49396
 Alpha virt. eigenvalues --    5.50612   5.51721   5.56211   5.61501   5.65697
 Alpha virt. eigenvalues --    5.70960   5.77944   5.83133   5.85676   5.85891
 Alpha virt. eigenvalues --    5.87122   5.92019   5.93310   5.95415   5.97131
 Alpha virt. eigenvalues --    5.98310   5.99975   6.00793   6.06705   6.10235
 Alpha virt. eigenvalues --    6.13097   6.16355   6.26044   6.27057   6.29258
 Alpha virt. eigenvalues --    6.29861   6.34358   6.37659   6.43066   6.46419
 Alpha virt. eigenvalues --    6.47866   6.51060   6.53132   6.53675   6.58282
 Alpha virt. eigenvalues --    6.61845   6.62292   6.65536   6.71377   6.74857
 Alpha virt. eigenvalues --    6.78083   6.82552   6.85644   6.86562   6.88980
 Alpha virt. eigenvalues --    6.92518   6.96651   6.97320   7.04043   7.10395
 Alpha virt. eigenvalues --    7.15720   7.19049   7.22866   7.24307   7.37094
 Alpha virt. eigenvalues --    7.41814   7.56528   7.76000   7.92343   8.09077
 Alpha virt. eigenvalues --   15.71078  15.91366  16.81838  17.02681  17.44838
 Alpha virt. eigenvalues --   18.06307  18.81868  19.00776  19.55501  19.85371
 Alpha virt. eigenvalues --   19.97068  20.45277  20.77874  20.93673  22.01660
          Condensed to atoms (all electrons):
               1          2          3          4          5          6
     1  C    9.085867   0.061271   0.094060  -0.449838  -0.874702  -0.499089
     2  C    0.061271   6.682540  -0.225513   0.048781  -0.332668  -0.046543
     3  C    0.094060  -0.225513   7.682956  -0.619648   0.021899  -0.283332
     4  C   -0.449838   0.048781  -0.619648   8.885110  -0.830180  -0.324040
     5  C   -0.874702  -0.332668   0.021899  -0.830180  11.403494  -1.520084
     6  C   -0.499089  -0.046543  -0.283332  -0.324040  -1.520084   8.646150
     7  C   -1.074321   0.062427   0.051871   0.187786  -0.444287  -0.349508
     8  O    0.113316  -0.035799   0.013215  -0.009680   0.119874  -0.213837
     9  O    0.010039  -0.002755  -0.001288  -0.020831  -0.045809  -0.078288
    10  C    0.398139  -0.002160   0.167901  -1.091961  -1.173329  -0.537726
    11  C    0.158169   0.014335  -0.006662   0.126436  -0.963690   0.037273
    12  C    0.025750   0.005329  -0.010760  -0.007008   0.209717  -0.098705
    13  C    0.018861  -0.004158   0.003839   0.029065  -0.171577   0.027234
    14  C   -0.042553   0.001962   0.007511  -0.063875   0.293129  -0.009252
    15  C   -0.133924   0.016085  -0.016381   0.413037  -0.636861   0.190088
    16  H    0.044912  -0.256955   0.047258   0.015525  -0.000745  -0.087410
    17  H   -0.195376   0.520893  -0.296575  -0.029604   0.009327  -0.011183
    18  H    0.045760  -0.243196   0.481595  -0.208908   0.007147  -0.024283
    19  H   -0.052692   0.048255  -0.622220   0.558813  -0.327934   0.120020
    20  H   -0.019581   0.000907  -0.001314   0.003650  -0.029556   0.005490
    21  H   -0.032686   0.007487  -0.007680  -0.013282   0.036473  -0.084387
    22  H   -0.000204   0.000125  -0.001421   0.003273   0.024947  -0.005002
    23  H    0.000961  -0.000281   0.000691   0.001872  -0.015358   0.003771
    24  H   -0.001952   0.000751   0.000025  -0.008203   0.030214  -0.004023
    25  H    0.009597  -0.002155  -0.004351   0.037030  -0.228371  -0.016162
               7          8          9         10         11         12
     1  C   -1.074321   0.113316   0.010039   0.398139   0.158169   0.025750
     2  C    0.062427  -0.035799  -0.002755  -0.002160   0.014335   0.005329
     3  C    0.051871   0.013215  -0.001288   0.167901  -0.006662  -0.010760
     4  C    0.187786  -0.009680  -0.020831  -1.091961   0.126436  -0.007008
     5  C   -0.444287   0.119874  -0.045809  -1.173329  -0.963690   0.209717
     6  C   -0.349508  -0.213837  -0.078288  -0.537726   0.037273  -0.098705
     7  C    7.729765  -0.183677   0.112844  -0.284893  -0.124915  -0.063323
     8  O   -0.183677   9.587914  -0.225946   0.025398   0.009790  -0.001232
     9  O    0.112844  -0.225946   8.562532  -0.127654   0.036439   0.077913
    10  C   -0.284893   0.025398  -0.127654  10.025453  -0.629189  -0.407554
    11  C   -0.124915   0.009790   0.036439  -0.629189   9.070535  -0.154954
    12  C   -0.063323  -0.001232   0.077913  -0.407554  -0.154954   7.531834
    13  C   -0.006358  -0.002588   0.018291  -0.471456  -0.031551  -0.027077
    14  C    0.010660   0.004188  -0.006424  -0.188497  -0.853584   0.059787
    15  C    0.132298  -0.003099  -0.051469  -1.453466   0.029122  -0.621928
    16  H    0.197897  -0.053412   0.001758  -0.012119   0.012668   0.005342
    17  H   -0.013942  -0.005118  -0.000686  -0.018591  -0.002402  -0.000412
    18  H   -0.010245   0.000789   0.000323   0.068504   0.012458  -0.000383
    19  H    0.004148   0.000882   0.004021   0.005126  -0.022272   0.004175
    20  H    0.074624  -0.076968   0.230580   0.014636  -0.007633  -0.022028
    21  H   -0.058684  -0.002342  -0.025761  -0.223933   0.245054  -0.394472
    22  H   -0.005970   0.000645   0.002108   0.021231  -0.170430   0.537921
    23  H    0.000481  -0.000086  -0.001306  -0.039349   0.031458  -0.234476
    24  H    0.000197   0.000147  -0.000278   0.038095   0.019155  -0.025748
    25  H   -0.004016   0.000126   0.002956  -0.117392   0.074667  -0.033483
              13         14         15         16         17         18
     1  C    0.018861  -0.042553  -0.133924   0.044912  -0.195376   0.045760
     2  C   -0.004158   0.001962   0.016085  -0.256955   0.520893  -0.243196
     3  C    0.003839   0.007511  -0.016381   0.047258  -0.296575   0.481595
     4  C    0.029065  -0.063875   0.413037   0.015525  -0.029604  -0.208908
     5  C   -0.171577   0.293129  -0.636861  -0.000745   0.009327   0.007147
     6  C    0.027234  -0.009252   0.190088  -0.087410  -0.011183  -0.024283
     7  C   -0.006358   0.010660   0.132298   0.197897  -0.013942  -0.010245
     8  O   -0.002588   0.004188  -0.003099  -0.053412  -0.005118   0.000789
     9  O    0.018291  -0.006424  -0.051469   0.001758  -0.000686   0.000323
    10  C   -0.471456  -0.188497  -1.453466  -0.012119  -0.018591   0.068504
    11  C   -0.031551  -0.853584   0.029122   0.012668  -0.002402   0.012458
    12  C   -0.027077   0.059787  -0.621928   0.005342  -0.000412  -0.000383
    13  C    7.003038  -0.066892  -0.150367   0.001079  -0.000221   0.000684
    14  C   -0.066892   7.846659  -0.448874  -0.003383   0.001624  -0.007454
    15  C   -0.150367  -0.448874   9.564972  -0.007082   0.005479  -0.016869
    16  H    0.001079  -0.003383  -0.007082   0.921163  -0.102511  -0.003400
    17  H   -0.000221   0.001624   0.005479  -0.102511   0.885437  -0.017166
    18  H    0.000684  -0.007454  -0.016869  -0.003400  -0.017166   0.677740
    19  H    0.000876   0.010643  -0.064089   0.006673  -0.019389  -0.017525
    20  H   -0.003233   0.000784   0.004734   0.000455   0.000179  -0.000161
    21  H    0.063335   0.006734   0.009867   0.000245   0.000088   0.000261
    22  H   -0.305232   0.001175   0.017768  -0.000054   0.000054  -0.000161
    23  H    0.466216  -0.236218   0.053756   0.000057  -0.000016   0.000109
    24  H   -0.285811   0.507865  -0.151922  -0.000125   0.000054  -0.000327
    25  H    0.080431  -0.526995   0.502737   0.001110  -0.000553   0.000821
              19         20         21         22         23         24
     1  C   -0.052692  -0.019581  -0.032686  -0.000204   0.000961  -0.001952
     2  C    0.048255   0.000907   0.007487   0.000125  -0.000281   0.000751
     3  C   -0.622220  -0.001314  -0.007680  -0.001421   0.000691   0.000025
     4  C    0.558813   0.003650  -0.013282   0.003273   0.001872  -0.008203
     5  C   -0.327934  -0.029556   0.036473   0.024947  -0.015358   0.030214
     6  C    0.120020   0.005490  -0.084387  -0.005002   0.003771  -0.004023
     7  C    0.004148   0.074624  -0.058684  -0.005970   0.000481   0.000197
     8  O    0.000882  -0.076968  -0.002342   0.000645  -0.000086   0.000147
     9  O    0.004021   0.230580  -0.025761   0.002108  -0.001306  -0.000278
    10  C    0.005126   0.014636  -0.223933   0.021231  -0.039349   0.038095
    11  C   -0.022272  -0.007633   0.245054  -0.170430   0.031458   0.019155
    12  C    0.004175  -0.022028  -0.394472   0.537921  -0.234476  -0.025748
    13  C    0.000876  -0.003233   0.063335  -0.305232   0.466216  -0.285811
    14  C    0.010643   0.000784   0.006734   0.001175  -0.236218   0.507865
    15  C   -0.064089   0.004734   0.009867   0.017768   0.053756  -0.151922
    16  H    0.006673   0.000455   0.000245  -0.000054   0.000057  -0.000125
    17  H   -0.019389   0.000179   0.000088   0.000054  -0.000016   0.000054
    18  H   -0.017525  -0.000161   0.000261  -0.000161   0.000109  -0.000327
    19  H    1.417902  -0.000617   0.009084   0.001496  -0.001191  -0.000597
    20  H   -0.000617   0.602054   0.000274  -0.002634   0.000243   0.000062
    21  H    0.009084   0.000274   1.336670  -0.009957  -0.011592   0.006000
    22  H    0.001496  -0.002634  -0.009957   0.787010  -0.042816  -0.006451
    23  H   -0.001191   0.000243  -0.011592  -0.042816   0.824902  -0.039265
    24  H   -0.000597   0.000062   0.006000  -0.006451  -0.039265   0.772497
    25  H   -0.054234  -0.000394  -0.019872   0.004399  -0.006113  -0.034381
              25
     1  C    0.009597
     2  C   -0.002155
     3  C   -0.004351
     4  C    0.037030
     5  C   -0.228371
     6  C   -0.016162
     7  C   -0.004016
     8  O    0.000126
     9  O    0.002956
    10  C   -0.117392
    11  C    0.074667
    12  C   -0.033483
    13  C    0.080431
    14  C   -0.526995
    15  C    0.502737
    16  H    0.001110
    17  H   -0.000553
    18  H    0.000821
    19  H   -0.054234
    20  H   -0.000394
    21  H   -0.019872
    22  H    0.004399
    23  H   -0.006113
    24  H   -0.034381
    25  H    1.195947
 Mulliken charges:
               1
     1  C   -0.689783
     2  C   -0.318962
     3  C   -0.475677
     4  C   -0.633316
     5  C    1.438931
     6  C    1.162828
     7  C    0.059143
     8  O   -1.062500
     9  O   -0.471311
    10  C    2.014787
    11  C   -0.910276
    12  C   -0.354225
    13  C   -0.186427
    14  C   -0.298721
    15  C   -1.183611
    16  H    0.271052
    17  H    0.290610
    18  H    0.253887
    19  H   -0.009356
    20  H    0.225446
    21  H    0.163076
    22  H    0.148183
    23  H    0.243547
    24  H    0.184023
    25  H    0.138651
 Sum of Mulliken charges =   0.00000
 Mulliken charges with hydrogens summed into heavy atoms:
               1
     1  C   -0.418731
     2  C   -0.028351
     3  C   -0.221790
     4  C   -0.642672
     5  C    1.438931
     6  C    1.162828
     7  C    0.059143
     8  O   -1.062500
     9  O   -0.245865
    10  C    2.014787
    11  C   -0.747200
    12  C   -0.206043
    13  C    0.057120
    14  C   -0.114698
    15  C   -1.044960
 Electronic spatial extent (au):  <R**2>=           2861.9535
 Charge=              0.0000 electrons
 Dipole moment (field-independent basis, Debye):
    X=              1.0446    Y=             -2.2031    Z=              0.0555  Tot=              2.4389
 Quadrupole moment (field-independent basis, Debye-Ang):
   XX=            -81.2799   YY=            -81.8069   ZZ=            -87.1802
   XY=              9.0624   XZ=             -0.8533   YZ=              1.4769
 Traceless Quadrupole moment (field-independent basis, Debye-Ang):
   XX=              2.1425   YY=              1.6154   ZZ=             -3.7579
   XY=              9.0624   XZ=             -0.8533   YZ=              1.4769
 Octapole moment (field-independent basis, Debye-Ang**2):
  XXX=              2.6223  YYY=              8.5752  ZZZ=             -4.1989  XYY=             12.6665
  XXY=            -19.2758  XXZ=              2.4034  XZZ=              0.6527  YZZ=             12.8077
  YYZ=             -8.2188  XYZ=              9.2945
 Hexadecapole moment (field-independent basis, Debye-Ang**3):
 XXXX=          -2281.3063 YYYY=          -1064.2991 ZZZZ=           -226.6883 XXXY=             56.7700
 XXXZ=            -19.4611 YYYX=             79.2870 YYYZ=            -31.7104 ZZZX=              4.0394
 ZZZY=             -0.8420 XXYY=           -640.7335 XXZZ=           -472.1062 YYZZ=           -223.4182
 XXYZ=             22.1785 YYXZ=             -9.9724 ZZXY=            -10.1747
 N-N= 9.415119541214D+02 E-N=-3.402307722969D+03  KE= 6.503709382458D+02
 ******************************Gaussian NBO Version 3.1******************************
             N A T U R A L   A T O M I C   O R B I T A L   A N D
          N A T U R A L   B O N D   O R B I T A L   A N A L Y S I S
 ******************************Gaussian NBO Version 3.1******************************
       /RESON  / : Allow strongly delocalized NBO set

 Analyzing the SCF density

 Job title: o-Ph                                                            

 Storage needed:   2543000 in NPA,   3389031 in NBO (********** available)
 GSVD:  LWork=      107080 too small for GESVD, short by     1366106 words or     1366106 for optimal perf.


 NATURAL POPULATIONS:  Natural atomic orbital occupancies 
                                                          
   NAO  Atom  No  lang   Type(AO)    Occupancy      Energy
 ----------------------------------------------------------
     1    C    1  S      Cor( 1S)     1.99910     -10.38194
     2    C    1  S      Val( 2S)     0.93993      -0.17678
     3    C    1  S      Ryd( 4S)     0.00149       1.93443
     4    C    1  S      Ryd( 5S)     0.00011       2.88950
     5    C    1  S      Ryd( 3S)     0.00002       1.91394
     6    C    1  px     Val( 2p)     1.10485      -0.05755
     7    C    1  px     Ryd( 4p)     0.00428       1.82392
     8    C    1  px     Ryd( 5p)     0.00005       2.04175
     9    C    1  px     Ryd( 3p)     0.00003       1.45846
    10    C    1  py     Val( 2p)     1.11946      -0.07204
    11    C    1  py     Ryd( 4p)     0.00431       1.95895
    12    C    1  py     Ryd( 5p)     0.00010       2.23011
    13    C    1  py     Ryd( 3p)     0.00006       1.49954
    14    C    1  pz     Val( 2p)     0.92728      -0.11549
    15    C    1  pz     Ryd( 4p)     0.00089       1.06513
    16    C    1  pz     Ryd( 5p)     0.00003       1.42946
    17    C    1  pz     Ryd( 3p)     0.00004       0.98535
    18    C    1  dxy    Ryd( 3d)     0.00171       2.38099
    19    C    1  dxy    Ryd( 4d)     0.00010       3.72059
    20    C    1  dxy    Ryd( 5d)     0.00008       3.89880
    21    C    1  dxz    Ryd( 3d)     0.00025       1.52054
    22    C    1  dxz    Ryd( 5d)     0.00009       3.06842
    23    C    1  dxz    Ryd( 4d)     0.00004       2.11339
    24    C    1  dyz    Ryd( 3d)     0.00047       1.53193
    25    C    1  dyz    Ryd( 5d)     0.00004       2.98103
    26    C    1  dyz    Ryd( 4d)     0.00002       2.26330
    27    C    1  dx2y2  Ryd( 4d)     0.00177       3.87786
    28    C    1  dx2y2  Ryd( 5d)     0.00026       3.90622
    29    C    1  dx2y2  Ryd( 3d)     0.00006       2.96582
    30    C    1  dz2    Ryd( 3d)     0.00094       1.74760
    31    C    1  dz2    Ryd( 5d)     0.00009       4.07260
    32    C    1  dz2    Ryd( 4d)     0.00006       4.06894
    33    C    1  f(0)   Ryd( 4f)     0.00014       1.55381
    34    C    1  f(0)   Ryd( 5f)     0.00008       3.45057
    35    C    1  f(C1)  Ryd( 4f)     0.00048       1.83954
    36    C    1  f(C1)  Ryd( 5f)     0.00012       3.63743
    37    C    1  f(S1)  Ryd( 4f)     0.00041       1.99361
    38    C    1  f(S1)  Ryd( 5f)     0.00018       3.64708
    39    C    1  f(C2)  Ryd( 4f)     0.00025       1.56533
    40    C    1  f(C2)  Ryd( 5f)     0.00003       3.50423
    41    C    1  f(S2)  Ryd( 4f)     0.00019       1.66753
    42    C    1  f(S2)  Ryd( 5f)     0.00006       3.51131
    43    C    1  f(C3)  Ryd( 4f)     0.00071       2.39212
    44    C    1  f(C3)  Ryd( 5f)     0.00017       4.20084
    45    C    1  f(S3)  Ryd( 4f)     0.00075       2.50901
    46    C    1  f(S3)  Ryd( 5f)     0.00013       4.12375
 
    47    C    2  S      Cor( 1S)     1.99909     -10.37317
    48    C    2  S      Val( 2S)     0.94484      -0.18555
    49    C    2  S      Ryd( 4S)     0.00132       1.92332
    50    C    2  S      Ryd( 5S)     0.00005       3.03701
    51    C    2  S      Ryd( 3S)     0.00001       1.79284
    52    C    2  px     Val( 2p)     1.17290      -0.08602
    53    C    2  px     Ryd( 5p)     0.00465       1.73433
    54    C    2  px     Ryd( 4p)     0.00003       1.69780
    55    C    2  px     Ryd( 3p)     0.00003       1.57398
    56    C    2  py     Val( 2p)     1.07485      -0.06787
    57    C    2  py     Ryd( 5p)     0.00410       1.73039
    58    C    2  py     Ryd( 3p)     0.00004       1.21081
    59    C    2  py     Ryd( 4p)     0.00001       1.32092
    60    C    2  pz     Val( 2p)     1.00701      -0.12266
    61    C    2  pz     Ryd( 3p)     0.00099       1.04984
    62    C    2  pz     Ryd( 5p)     0.00001       1.15751
    63    C    2  pz     Ryd( 4p)     0.00002       1.08496
    64    C    2  dxy    Ryd( 4d)     0.00211       3.02382
    65    C    2  dxy    Ryd( 5d)     0.00026       3.63691
    66    C    2  dxy    Ryd( 3d)     0.00004       2.26767
    67    C    2  dxz    Ryd( 3d)     0.00028       1.51568
    68    C    2  dxz    Ryd( 5d)     0.00006       2.96712
    69    C    2  dxz    Ryd( 4d)     0.00003       1.72202
    70    C    2  dyz    Ryd( 3d)     0.00035       1.55099
    71    C    2  dyz    Ryd( 5d)     0.00001       2.86917
    72    C    2  dyz    Ryd( 4d)     0.00001       1.81734
    73    C    2  dx2y2  Ryd( 3d)     0.00188       2.59863
    74    C    2  dx2y2  Ryd( 5d)     0.00015       3.68817
    75    C    2  dx2y2  Ryd( 4d)     0.00005       2.60723
    76    C    2  dz2    Ryd( 3d)     0.00104       1.77080
    77    C    2  dz2    Ryd( 5d)     0.00006       4.07489
    78    C    2  dz2    Ryd( 4d)     0.00009       3.20420
    79    C    2  f(0)   Ryd( 5f)     0.00011       3.52174
    80    C    2  f(0)   Ryd( 4f)     0.00001       2.25247
    81    C    2  f(C1)  Ryd( 5f)     0.00016       3.69692
    82    C    2  f(C1)  Ryd( 4f)     0.00003       2.84989
    83    C    2  f(S1)  Ryd( 5f)     0.00024       3.77717
    84    C    2  f(S1)  Ryd( 4f)     0.00001       2.73668
    85    C    2  f(C2)  Ryd( 5f)     0.00002       3.68938
    86    C    2  f(C2)  Ryd( 4f)     0.00001       2.31342
    87    C    2  f(S2)  Ryd( 5f)     0.00002       3.63169
    88    C    2  f(S2)  Ryd( 4f)     0.00001       2.50462
    89    C    2  f(C3)  Ryd( 4f)     0.00009       4.28551
    90    C    2  f(C3)  Ryd( 5f)     0.00009       4.65811
    91    C    2  f(S3)  Ryd( 4f)     0.00012       4.29083
    92    C    2  f(S3)  Ryd( 5f)     0.00007       4.73281
 
    93    C    3  S      Cor( 1S)     1.99908     -10.37890
    94    C    3  S      Val( 2S)     0.94612      -0.19053
    95    C    3  S      Ryd( 4S)     0.00128       1.99338
    96    C    3  S      Ryd( 5S)     0.00006       2.85609
    97    C    3  S      Ryd( 3S)     0.00001       1.69294
    98    C    3  px     Val( 2p)     1.07272      -0.06654
    99    C    3  px     Ryd( 5p)     0.00392       1.72769
   100    C    3  px     Ryd( 3p)     0.00004       1.17067
   101    C    3  px     Ryd( 4p)     0.00001       1.34188
   102    C    3  py     Val( 2p)     1.17291      -0.08554
   103    C    3  py     Ryd( 5p)     0.00526       1.74075
   104    C    3  py     Ryd( 3p)     0.00004       1.63601
   105    C    3  py     Ryd( 4p)     0.00004       1.67309
   106    C    3  pz     Val( 2p)     0.94991      -0.12018
   107    C    3  pz     Ryd( 3p)     0.00069       1.06035
   108    C    3  pz     Ryd( 4p)     0.00002       1.08111
   109    C    3  pz     Ryd( 5p)     0.00002       1.16354
   110    C    3  dxy    Ryd( 4d)     0.00206       3.11567
   111    C    3  dxy    Ryd( 5d)     0.00027       3.77724
   112    C    3  dxy    Ryd( 3d)     0.00005       2.10504
   113    C    3  dxz    Ryd( 3d)     0.00055       1.57477
   114    C    3  dxz    Ryd( 5d)     0.00001       3.00110
   115    C    3  dxz    Ryd( 4d)     0.00002       1.78128
   116    C    3  dyz    Ryd( 3d)     0.00034       1.50831
   117    C    3  dyz    Ryd( 5d)     0.00005       3.00234
   118    C    3  dyz    Ryd( 4d)     0.00002       1.57477
   119    C    3  dx2y2  Ryd( 4d)     0.00190       2.60851
   120    C    3  dx2y2  Ryd( 5d)     0.00016       3.72113
   121    C    3  dx2y2  Ryd( 3d)     0.00004       2.49050
   122    C    3  dz2    Ryd( 3d)     0.00098       1.81712
   123    C    3  dz2    Ryd( 5d)     0.00005       3.99374
   124    C    3  dz2    Ryd( 4d)     0.00009       3.00996
   125    C    3  f(0)   Ryd( 5f)     0.00010       3.53639
   126    C    3  f(0)   Ryd( 4f)     0.00002       2.22482
   127    C    3  f(C1)  Ryd( 5f)     0.00022       3.77207
   128    C    3  f(C1)  Ryd( 4f)     0.00001       2.80895
   129    C    3  f(S1)  Ryd( 5f)     0.00015       3.70336
   130    C    3  f(S1)  Ryd( 4f)     0.00003       2.87643
   131    C    3  f(C2)  Ryd( 5f)     0.00002       3.68144
   132    C    3  f(C2)  Ryd( 4f)     0.00001       2.27684
   133    C    3  f(S2)  Ryd( 5f)     0.00002       3.63792
   134    C    3  f(S2)  Ryd( 4f)     0.00002       2.46434
   135    C    3  f(C3)  Ryd( 4f)     0.00012       4.30054
   136    C    3  f(C3)  Ryd( 5f)     0.00008       4.68840
   137    C    3  f(S3)  Ryd( 4f)     0.00009       4.29947
   138    C    3  f(S3)  Ryd( 5f)     0.00009       4.70272
 
   139    C    4  S      Cor( 1S)     1.99908     -10.37619
   140    C    4  S      Val( 2S)     0.93511      -0.17181
   141    C    4  S      Ryd( 3S)     0.00155       1.92119
   142    C    4  S      Ryd( 5S)     0.00014       2.92057
   143    C    4  S      Ryd( 4S)     0.00001       2.00759
   144    C    4  px     Val( 2p)     1.11669      -0.07712
   145    C    4  px     Ryd( 4p)     0.00349       2.10448
   146    C    4  px     Ryd( 5p)     0.00009       2.51045
   147    C    4  px     Ryd( 3p)     0.00003       0.96489
   148    C    4  py     Val( 2p)     1.10999      -0.06284
   149    C    4  py     Ryd( 4p)     0.00400       1.77933
   150    C    4  py     Ryd( 5p)     0.00005       2.43629
   151    C    4  py     Ryd( 3p)     0.00004       1.05480
   152    C    4  pz     Val( 2p)     1.00495      -0.12461
   153    C    4  pz     Ryd( 4p)     0.00099       1.05170
   154    C    4  pz     Ryd( 5p)     0.00003       1.77048
   155    C    4  pz     Ryd( 3p)     0.00004       0.77847
   156    C    4  dxy    Ryd( 3d)     0.00146       2.45834
   157    C    4  dxy    Ryd( 4d)     0.00006       3.57625
   158    C    4  dxy    Ryd( 5d)     0.00008       4.24032
   159    C    4  dxz    Ryd( 3d)     0.00045       1.63751
   160    C    4  dxz    Ryd( 5d)     0.00009       2.83274
   161    C    4  dxz    Ryd( 4d)     0.00002       2.57602
   162    C    4  dyz    Ryd( 3d)     0.00011       1.49928
   163    C    4  dyz    Ryd( 5d)     0.00010       2.87125
   164    C    4  dyz    Ryd( 4d)     0.00004       2.65081
   165    C    4  dx2y2  Ryd( 3d)     0.00156       3.50120
   166    C    4  dx2y2  Ryd( 4d)     0.00027       3.51450
   167    C    4  dx2y2  Ryd( 5d)     0.00006       3.96791
   168    C    4  dz2    Ryd( 3d)     0.00082       1.66392
   169    C    4  dz2    Ryd( 4d)     0.00011       4.05280
   170    C    4  dz2    Ryd( 5d)     0.00005       4.29786
   171    C    4  f(0)   Ryd( 4f)     0.00021       1.63672
   172    C    4  f(0)   Ryd( 5f)     0.00008       3.42038
   173    C    4  f(C1)  Ryd( 4f)     0.00041       2.11356
   174    C    4  f(C1)  Ryd( 5f)     0.00015       3.60648
   175    C    4  f(S1)  Ryd( 4f)     0.00050       1.96656
   176    C    4  f(S1)  Ryd( 5f)     0.00009       3.57478
   177    C    4  f(C2)  Ryd( 4f)     0.00018       1.69499
   178    C    4  f(C2)  Ryd( 5f)     0.00003       3.47711
   179    C    4  f(S2)  Ryd( 4f)     0.00019       1.72493
   180    C    4  f(S2)  Ryd( 5f)     0.00008       3.45677
   181    C    4  f(C3)  Ryd( 4f)     0.00066       2.65109
   182    C    4  f(C3)  Ryd( 5f)     0.00010       4.08463
   183    C    4  f(S3)  Ryd( 4f)     0.00062       2.52611
   184    C    4  f(S3)  Ryd( 5f)     0.00017       4.19541
 
   185    C    5  S      Cor( 1S)     1.99896     -10.37063
   186    C    5  S      Val( 2S)     0.84047      -0.07340
   187    C    5  S      Ryd( 3S)     0.00091       2.10670
   188    C    5  S      Ryd( 5S)     0.00006       2.97807
   189    C    5  S      Ryd( 4S)     0.00002       2.52264
   190    C    5  px     Val( 2p)     1.07807      -0.05578
   191    C    5  px     Ryd( 4p)     0.00568       2.63629
   192    C    5  px     Ryd( 5p)     0.00006       2.87102
   193    C    5  px     Ryd( 3p)     0.00002       1.13864
   194    C    5  py     Val( 2p)     1.09250      -0.07567
   195    C    5  py     Ryd( 4p)     0.00391       2.30249
   196    C    5  py     Ryd( 5p)     0.00004       3.00460
   197    C    5  py     Ryd( 3p)     0.00003       0.83944
   198    C    5  pz     Val( 2p)     0.95315      -0.11300
   199    C    5  pz     Ryd( 4p)     0.00370       1.03384
   200    C    5  pz     Ryd( 5p)     0.00007       2.36235
   201    C    5  pz     Ryd( 3p)     0.00003       0.75841
   202    C    5  dxy    Ryd( 3d)     0.00082       3.10201
   203    C    5  dxy    Ryd( 4d)     0.00037       3.70807
   204    C    5  dxy    Ryd( 5d)     0.00004       5.10828
   205    C    5  dxz    Ryd( 3d)     0.00022       1.94705
   206    C    5  dxz    Ryd( 4d)     0.00020       2.91835
   207    C    5  dxz    Ryd( 5d)     0.00004       3.18843
   208    C    5  dyz    Ryd( 3d)     0.00038       1.73409
   209    C    5  dyz    Ryd( 4d)     0.00014       2.79979
   210    C    5  dyz    Ryd( 5d)     0.00005       3.79830
   211    C    5  dx2y2  Ryd( 3d)     0.00133       3.34099
   212    C    5  dx2y2  Ryd( 4d)     0.00030       3.82181
   213    C    5  dx2y2  Ryd( 5d)     0.00005       5.73405
   214    C    5  dz2    Ryd( 3d)     0.00052       1.86622
   215    C    5  dz2    Ryd( 4d)     0.00019       3.51379
   216    C    5  dz2    Ryd( 5d)     0.00006       4.51292
   217    C    5  f(0)   Ryd( 4f)     0.00030       1.62291
   218    C    5  f(0)   Ryd( 5f)     0.00023       3.75226
   219    C    5  f(C1)  Ryd( 4f)     0.00052       2.36401
   220    C    5  f(C1)  Ryd( 5f)     0.00027       3.86466
   221    C    5  f(S1)  Ryd( 4f)     0.00069       2.23003
   222    C    5  f(S1)  Ryd( 5f)     0.00026       3.84920
   223    C    5  f(C2)  Ryd( 4f)     0.00072       1.45916
   224    C    5  f(C2)  Ryd( 5f)     0.00001       3.87721
   225    C    5  f(S2)  Ryd( 4f)     0.00067       1.62518
   226    C    5  f(S2)  Ryd( 5f)     0.00002       3.93641
   227    C    5  f(C3)  Ryd( 4f)     0.00162       3.75036
   228    C    5  f(C3)  Ryd( 5f)     0.00012       4.56279
   229    C    5  f(S3)  Ryd( 4f)     0.00204       3.04824
   230    C    5  f(S3)  Ryd( 5f)     0.00013       4.68773
 
   231    C    6  S      Cor( 1S)     1.99878     -10.37610
   232    C    6  S      Val( 2S)     0.87691      -0.10395
   233    C    6  S      Ryd( 3S)     0.00107       2.07583
   234    C    6  S      Ryd( 5S)     0.00007       2.75345
   235    C    6  S      Ryd( 4S)     0.00002       2.53880
   236    C    6  px     Val( 2p)     1.12873      -0.09947
   237    C    6  px     Ryd( 4p)     0.00443       2.32176
   238    C    6  px     Ryd( 5p)     0.00007       2.73916
   239    C    6  px     Ryd( 3p)     0.00003       0.84093
   240    C    6  py     Val( 2p)     1.09166      -0.09972
   241    C    6  py     Ryd( 4p)     0.00539       2.67616
   242    C    6  py     Ryd( 5p)     0.00006       2.95533
   243    C    6  py     Ryd( 3p)     0.00005       0.94542
   244    C    6  pz     Val( 2p)     1.08645      -0.13500
   245    C    6  pz     Ryd( 4p)     0.00169       1.08254
   246    C    6  pz     Ryd( 5p)     0.00011       2.14591
   247    C    6  pz     Ryd( 3p)     0.00003       0.67824
   248    C    6  dxy    Ryd( 3d)     0.00070       2.53290
   249    C    6  dxy    Ryd( 4d)     0.00040       3.73784
   250    C    6  dxy    Ryd( 5d)     0.00004       5.48430
   251    C    6  dxz    Ryd( 3d)     0.00037       1.40034
   252    C    6  dxz    Ryd( 5d)     0.00015       3.10422
   253    C    6  dxz    Ryd( 4d)     0.00002       3.07675
   254    C    6  dyz    Ryd( 3d)     0.00022       1.54230
   255    C    6  dyz    Ryd( 5d)     0.00015       3.17180
   256    C    6  dyz    Ryd( 4d)     0.00003       3.14105
   257    C    6  dx2y2  Ryd( 3d)     0.00189       3.20314
   258    C    6  dx2y2  Ryd( 4d)     0.00012       3.93348
   259    C    6  dx2y2  Ryd( 5d)     0.00004       5.93701
   260    C    6  dz2    Ryd( 3d)     0.00076       1.36094
   261    C    6  dz2    Ryd( 4d)     0.00017       4.07234
   262    C    6  dz2    Ryd( 5d)     0.00004       4.49323
   263    C    6  f(0)   Ryd( 4f)     0.00040       1.68658
   264    C    6  f(0)   Ryd( 5f)     0.00028       3.64239
   265    C    6  f(C1)  Ryd( 4f)     0.00068       2.18637
   266    C    6  f(C1)  Ryd( 5f)     0.00026       3.85310
   267    C    6  f(S1)  Ryd( 4f)     0.00045       2.17699
   268    C    6  f(S1)  Ryd( 5f)     0.00033       3.80648
   269    C    6  f(C2)  Ryd( 4f)     0.00059       1.64743
   270    C    6  f(C2)  Ryd( 5f)     0.00003       3.75495
   271    C    6  f(S2)  Ryd( 4f)     0.00080       1.54107
   272    C    6  f(S2)  Ryd( 5f)     0.00005       3.67385
   273    C    6  f(C3)  Ryd( 4f)     0.00191       3.04303
   274    C    6  f(C3)  Ryd( 5f)     0.00019       4.54485
   275    C    6  f(S3)  Ryd( 4f)     0.00146       3.71644
   276    C    6  f(S3)  Ryd( 5f)     0.00012       4.56151
 
   277    C    7  S      Cor( 1S)     1.99911     -10.53209
   278    C    7  S      Val( 2S)     0.78146      -0.10106
   279    C    7  S      Ryd( 5S)     0.00418       2.00268
   280    C    7  S      Ryd( 4S)     0.00012       1.98558
   281    C    7  S      Ryd( 3S)     0.00004       1.97060
   282    C    7  px     Val( 2p)     0.72110      -0.02803
   283    C    7  px     Ryd( 5p)     0.01034       1.67806
   284    C    7  px     Ryd( 3p)     0.00007       1.41066
   285    C    7  px     Ryd( 4p)     0.00003       1.67642
   286    C    7  py     Val( 2p)     0.91248      -0.03685
   287    C    7  py     Ryd( 5p)     0.00745       1.62950
   288    C    7  py     Ryd( 3p)     0.00029       1.37826
   289    C    7  py     Ryd( 4p)     0.00002       1.49598
   290    C    7  pz     Val( 2p)     0.76286      -0.11674
   291    C    7  pz     Ryd( 4p)     0.00088       1.19604
   292    C    7  pz     Ryd( 3p)     0.00015       0.89701
   293    C    7  pz     Ryd( 5p)     0.00003       1.30472
   294    C    7  dxy    Ryd( 4d)     0.00053       3.58152
   295    C    7  dxy    Ryd( 3d)     0.00021       2.03318
   296    C    7  dxy    Ryd( 5d)     0.00010       4.23910
   297    C    7  dxz    Ryd( 4d)     0.00112       2.89356
   298    C    7  dxz    Ryd( 3d)     0.00020       1.66141
   299    C    7  dxz    Ryd( 5d)     0.00007       3.04218
   300    C    7  dyz    Ryd( 4d)     0.00091       2.86572
   301    C    7  dyz    Ryd( 3d)     0.00012       1.38738
   302    C    7  dyz    Ryd( 5d)     0.00005       3.13996
   303    C    7  dx2y2  Ryd( 4d)     0.00197       3.54689
   304    C    7  dx2y2  Ryd( 3d)     0.00031       1.69522
   305    C    7  dx2y2  Ryd( 5d)     0.00005       4.04160
   306    C    7  dz2    Ryd( 4d)     0.00046       3.37738
   307    C    7  dz2    Ryd( 3d)     0.00036       2.11497
   308    C    7  dz2    Ryd( 5d)     0.00009       3.87488
   309    C    7  f(0)   Ryd( 4f)     0.00025       1.57677
   310    C    7  f(0)   Ryd( 5f)     0.00010       3.80317
   311    C    7  f(C1)  Ryd( 4f)     0.00031       1.68415
   312    C    7  f(C1)  Ryd( 5f)     0.00009       3.82430
   313    C    7  f(S1)  Ryd( 4f)     0.00032       1.71326
   314    C    7  f(S1)  Ryd( 5f)     0.00014       3.87405
   315    C    7  f(C2)  Ryd( 4f)     0.00045       1.63923
   316    C    7  f(C2)  Ryd( 5f)     0.00002       3.77653
   317    C    7  f(S2)  Ryd( 4f)     0.00096       1.63967
   318    C    7  f(S2)  Ryd( 5f)     0.00003       3.95482
   319    C    7  f(C3)  Ryd( 4f)     0.00174       2.43160
   320    C    7  f(C3)  Ryd( 5f)     0.00007       4.83970
   321    C    7  f(S3)  Ryd( 4f)     0.00071       2.77925
   322    C    7  f(S3)  Ryd( 5f)     0.00006       4.74896
 
   323    O    8  S      Cor( 1S)     1.99979     -19.31695
   324    O    8  S      Val( 2S)     1.70541      -0.99176
   325    O    8  S      Ryd( 4S)     0.00044       3.19363
   326    O    8  S      Ryd( 3S)     0.00020       1.40900
   327    O    8  S      Ryd( 5S)     0.00004       9.83639
   328    O    8  px     Val( 2p)     1.70529      -0.33164
   329    O    8  px     Ryd( 4p)     0.00165       1.58106
   330    O    8  px     Ryd( 3p)     0.00007       1.06181
   331    O    8  px     Ryd( 5p)     0.00005       4.81858
   332    O    8  py     Val( 2p)     1.69133      -0.32718
   333    O    8  py     Ryd( 4p)     0.00102       1.72206
   334    O    8  py     Ryd( 3p)     0.00013       1.20819
   335    O    8  py     Ryd( 5p)     0.00005       4.64080
   336    O    8  pz     Val( 2p)     1.48558      -0.28563
   337    O    8  pz     Ryd( 4p)     0.00091       1.18076
   338    O    8  pz     Ryd( 3p)     0.00002       0.82455
   339    O    8  pz     Ryd( 5p)     0.00001       4.00522
[...]
 00323212,0.07103543,0.05030811,-0.06622292,0.00525466,0.00526404,0.001
 50765,0.00313958,-0.00089493,0.00653608,-0.00032454,-0.00030042,-0.000
 86451,0.00117095,0.00057686,0.00702144,0.00017537,-0.00010595,0.000336
 56,-0.00009200,-0.00004514,-0.00001996,-0.00001188,-0.00003030,-0.0001
 3326,-0.00018524,0.00006232,-0.00092544,-0.00016390,-0.00016957,0.0000
 6874,0.00013092,-0.00001635,-0.00010652,-0.00001002,0.00009324,0.00011
 431,-0.00010314,-0.00013734,-0.00002937,0.00017654,0.00012044,-0.00005
 814,-0.00147112,-0.00026994,-0.00379511,-0.07876953,-0.05478656,0.0569
 4278,-0.00397689,0.00254096,0.00353333,0.00231138,0.02794617,-0.001824
 69,-0.06261811,0.03495715,0.00373290,0.00738939,-0.02466645,0.00147328
 ,-0.00271002,-0.00289157,0.00347722,-0.00161247,-0.00025798,0.00032314
 ,-0.00024303,-0.00007305,-0.00016493,0.00022391,-0.00000461,-0.0000961
 8,0.00008451,0.00012369,-0.00011900,0.00063383,-0.00088923,-0.00020399
 ,-0.00024077,-0.00007468,0.00010581,-0.00002583,-0.00001746,-0.0000874
 4,-0.00002219,-0.00003666,0.00000119,0.00000942,0.00003833,0.00001812,
 -0.00007485,0.00003121,-0.00005869,0.00002223,0.00130763,-0.00018979,0
 .00054145,-0.00075534,-0.00142232,0.05981490,0.00279499,0.00098285,-0.
 00026798,-0.00098362,-0.00804797,0.00149938,0.03478849,-0.33862968,0.0
 1556057,0.00458179,-0.01320994,0.00027728,-0.00291337,0.00019126,0.001
 45221,-0.00034320,0.00079567,-0.00002599,0.00000476,-0.00007350,-0.000
 13410,-0.00003665,-0.00008519,0.00000282,0.00001443,-0.00001748,0.0000
 4441,0.00052240,-0.00054281,-0.00017702,-0.00019129,-0.00006585,0.0001
 4211,-0.00002921,-0.00001152,-0.00005635,-0.00003555,-0.00003525,0.000
 00533,-0.00001390,0.00002950,-0.00000095,-0.00007768,-0.00006481,-0.00
 003476,-0.00017388,-0.00044438,0.00009240,0.00011024,0.00061327,-0.000
 48813,-0.03770391,0.35790919,0.00391823,-0.00001048,0.00628707,0.00105
 023,-0.00824253,0.00493422,0.00350832,0.01578974,-0.04299317,-0.001726
 96,0.00924715,0.00413033,0.00322499,0.00171595,0.00656136,-0.00018658,
 -0.00004150,-0.00082497,-0.00034103,-0.00030072,-0.00116743,0.00011539
 ,-0.00013918,0.00009074,0.00005209,0.00015161,0.00002325,-0.00015874,0
 .00036071,-0.00011380,0.00015415,0.00014416,-0.00004787,0.00003014,-0.
 00006427,0.00005153,0.00002658,-0.00002071,-0.00004252,0.00007877,0.00
 001755,0.00004479,-0.00001370,0.00004213,-0.00003803,-0.00001278,-0.00
 040155,-0.00004195,-0.00149802,-0.00017147,-0.00360555,-0.00705969,-0.
 01762338,0.03072529,0.00015457,-0.00095977,-0.00031161,-0.00142360,-0.
 00345324,0.00283056,-0.01565140,0.01183148,0.00437427,-0.28107703,0.10
 503519,0.05562892,-0.00097315,0.00014669,0.00140238,0.00214792,0.00046
 853,0.00122585,0.00021387,-0.00049895,0.00040943,-0.00011264,0.0002186
 3,-0.00008007,0.00003637,0.00011571,-0.00014139,0.00028501,-0.00118254
 ,-0.00115949,0.00029795,0.00006880,0.00017007,-0.00011799,-0.00008258,
 0.00003251,-0.00003450,-0.00003666,-0.00009029,0.00009127,-0.00011559,
 -0.00012251,0.00003412,-0.00022858,0.00052263,-0.00012311,0.00004316,-
 0.00021694,-0.00080861,0.00062726,0.00024767,0.00048936,-0.00031784,-0
 .00123723,0.29653927,-0.00087597,-0.00121651,0.00027221,-0.00312950,-0
 .00136769,0.00184745,-0.01738697,0.01163610,0.00408304,0.10321716,-0.1
 0610770,-0.02245987,0.02741236,-0.00933570,-0.00641410,0.00035594,-0.0
 0574116,0.00147806,0.00140762,0.00119054,-0.00054890,0.00020954,-0.001
 01019,-0.00027047,-0.00028723,-0.00036998,0.00021964,0.00160252,0.0010
 4869,-0.00078169,-0.00046185,-0.00046266,-0.00017772,0.00037839,0.0001
 0687,-0.00021252,-0.00001858,0.00027751,0.00037301,-0.00060791,-0.0002
 0519,0.00002570,-0.00011630,-0.00002260,-0.00013219,0.00005402,0.00006
 589,-0.00009939,-0.00085940,0.00042723,0.00033419,0.00043966,0.0007309
 1,-0.00060585,-0.11146816,0.11053278,-0.00070298,-0.00070269,-0.000776
 92,0.00252017,0.00273059,0.00648299,0.00877750,-0.00380289,0.00176266,
 0.05447085,-0.02317337,-0.05119537,-0.00236606,0.00124517,0.00452624,0
 .00202498,0.00081579,0.00589559,0.00015541,0.00012277,0.00045023,-0.00
 006896,0.00011502,-0.00020280,-0.00004323,0.00001356,-0.00005218,0.000
 03533,0.00051106,-0.00368492,-0.00063230,-0.00076294,0.00003451,0.0003
 2455,-0.00012690,-0.00036289,-0.00003800,0.00022966,0.00030651,-0.0002
 4783,-0.00046392,-0.00023259,0.00038499,0.00114891,0.00020950,-0.00025
 945,-0.00011445,-0.00080439,0.00032845,-0.00017499,0.00000395,-0.00147
 157,-0.00029857,-0.00387837,-0.06332771,0.02238380,0.04216991,-0.00000
 105,0.00043052,-0.00003992,0.00012069,-0.00023417,-0.00043941,-0.00009
 779,-0.00010419,0.00003653,-0.00020820,-0.00003500,-0.00016892,-0.0000
 4402,-0.00042029,0.00022497,0.00268139,-0.00095699,0.00415447,0.010320
 62,-0.02043446,0.00006403,-0.00532601,0.00233551,-0.00204734,-0.061002
 73,0.14271536,0.01156960,-0.00009724,0.00042737,0.00015132,-0.00021271
 ,0.00002512,-0.00003223,0.00012814,-0.00015615,-0.00005804,-0.00021512
 ,-0.00002448,0.00032607,-0.00011855,-0.00017966,-0.00006690,0.00016499
 ,0.00008417,-0.00030669,0.00002336,-0.00010739,0.00024830,-0.00001228,
 0.00001153,0.00002234,0.00000146,0.00000750,0.00005789,-0.00000295,0.0
 0001696,0.00000417,0.05395890,0.00047847,-0.00008156,0.00041030,-0.000
 23836,-0.00014172,-0.00012393,-0.00007720,0.00007511,0.00006568,-0.000
 06415,0.00003583,-0.00025319,0.00002907,0.00007715,-0.00036626,-0.0010
 1164,0.00158129,0.00292310,0.00320465,-0.03107930,0.01107047,0.0029877
 3,0.00243377,-0.00866451,0.11835388,-0.46263627,0.00937102,-0.00003083
 ,0.00005264,0.00029123,-0.00015980,-0.00007370,-0.00015134,0.00018130,
 0.00012130,-0.00002795,-0.00006799,0.00001220,0.00019430,-0.00010610,-
 0.00011031,-0.00001947,0.00012561,-0.00001932,-0.00017174,-0.00010482,
 -0.00007614,0.00008991,0.00000774,-0.00002637,-0.00005877,-0.00000015,
 0.00001688,0.00003166,0.00001039,0.00001999,0.00002300,-0.12349964,0.4
 8981776,-0.00055405,0.00144633,-0.00010931,0.00061494,-0.00002074,-0.0
 0009979,-0.00010949,-0.00014153,0.00002092,-0.00000744,0.00010919,0.00
 007231,0.00004036,-0.00051692,0.00034145,0.00498870,0.00096166,-0.0029
 2024,-0.01182017,0.05017658,-0.00032508,-0.00179179,-0.00741102,0.0004
 2773,0.02238044,-0.03008560,-0.03931187,-0.00020126,0.00009963,-0.0000
 3185,-0.00025227,-0.00008599,0.00023376,0.00006164,-0.00005836,-0.0000
 7155,-0.00002131,0.00010912,0.00005711,-0.00005905,-0.00008303,-0.0001
 0877,0.00003864,0.00001534,-0.00008257,0.00009499,0.00005028,-0.000004
 46,-0.00002126,0.00010677,0.00002277,-0.00001078,-0.00000748,-0.000005
 06,0.00000468,-0.00001245,-0.00000705,-0.01339819,-0.01469989,0.042120
 09,0.00003412,0.00012056,0.00010236,0.00004797,-0.00010379,0.00000323,
 -0.00019699,0.00010708,0.00008885,0.00040103,0.00052240,-0.00008922,-0
 .00105484,0.00073966,-0.00156128,-0.00021834,-0.00037774,-0.00022015,-
 0.00082248,-0.00038362,-0.00125650,0.00003918,0.00026395,0.00041785,-0
 .00001404,-0.00020993,0.00024259,0.00776080,-0.00226418,-0.00645784,-0
 .13794609,0.02813216,0.12958254,-0.00946720,0.00741434,0.02125549,-0.0
 0129960,-0.00586320,0.00212426,-0.00052532,-0.00031485,-0.00076189,0.0
 0226683,-0.00362058,0.00033276,-0.00003224,-0.00000508,-0.00004185,0.0
 0000560,0.00001542,-0.00000214,0.00001878,0.00002172,0.00000299,-0.000
 01063,0.00002595,-0.00002540,0.00003899,0.00008042,-0.00002648,0.14204
 951,-0.00034751,-0.00051894,0.00020543,-0.00023765,0.00042991,0.000028
 08,0.00049697,-0.00005657,-0.00021563,-0.00043199,-0.00082189,0.000138
 02,0.00307063,-0.00018773,0.00072409,0.00026573,0.00036543,0.00016793,
 0.00000891,0.00122580,-0.00025536,-0.00008450,-0.00049799,-0.00006915,
 -0.00038523,-0.00026508,-0.00001290,0.01269796,-0.00190183,-0.01875414
 ,0.02796388,-0.06531614,-0.05715274,-0.00962215,0.00810795,0.01387087,
 -0.00536517,0.00160918,-0.00155846,-0.00053847,-0.00120161,0.00027218,
 -0.00376932,-0.00097367,-0.00483157,0.00001517,0.00000677,-0.00001426,
 -0.00001471,0.00001130,-0.00001228,-0.00000456,-0.00000508,0.00002269,
 -0.00001982,0.00002114,-0.00003243,0.00012454,0.00000760,0.00011235,-0
 .02658825,0.06141325,-0.00026062,-0.00005050,0.00026980,-0.00014625,0.
 00014966,0.00001513,0.00013238,0.00017590,-0.00003691,0.00011469,-0.00
 013199,0.00022014,-0.00085245,0.00214264,-0.00074220,-0.00018798,-0.00
 024832,0.00010517,-0.00146101,-0.00090482,-0.00020343,0.00025062,0.000
 26379,0.00000268,0.00067932,0.00039496,0.00015294,0.01190708,-0.002585
 81,-0.01063486,0.12959691,-0.05850995,-0.23298407,0.00192212,-0.002546
 00,-0.00079346,0.00256117,-0.00135276,0.00359212,-0.00082646,0.0002352
 8,0.00000914,-0.00000036,-0.00500246,0.00135427,-0.00003903,-0.0000485
 0,0.00000782,-0.00000891,0.00002735,-0.00001498,-0.00000638,0.00000597
 ,-0.00003939,-0.00000808,0.00007755,-0.00003871,-0.00017260,0.00011506
 ,-0.00021329,-0.14222350,0.06582504,0.24194796,-0.00003704,-0.00000754
 ,0.00006539,-0.00005553,0.00000893,0.00000780,0.00006859,-0.00004239,0
 .00008349,-0.00032992,-0.00017367,0.00009925,0.00024571,-0.00071241,-0
 .00084267,-0.00002458,-0.00000025,-0.00001789,0.00003078,-0.00044531,0
 .00001688,-0.00002107,0.00021963,0.00005565,0.00008031,0.00021076,-0.0
 0006979,-0.00165823,-0.00478385,0.00347550,-0.00207648,-0.01989115,-0.
 01650891,-0.07247480,-0.06311573,-0.03779626,0.00889938,0.01428029,0.0
 1101203,0.00047907,-0.00125371,0.00522234,-0.00121090,0.00032653,0.000
 55795,-0.00001945,-0.00001827,0.00000542,-0.00000938,0.00000053,-0.000
 01144,-0.00002391,-0.00002428,0.00000473,-0.00002404,0.00000143,-0.000
 02913,-0.00008878,-0.00005357,-0.00003428,-0.00058657,0.00209746,-0.00
 133366,0.06947255,-0.00000665,0.00000782,0.00002830,-0.00004963,-0.000
 01365,0.00000747,0.00005958,-0.00003581,0.00000968,-0.00018986,-0.0000
 1644,0.00005772,0.00023303,-0.00031634,-0.00062379,-0.00002033,-0.0000
 2920,0.00005348,0.00012678,-0.00019824,-0.00009911,-0.00006713,0.00012
 299,0.00008249,-0.00003477,0.00005751,0.00001468,-0.00503163,0.0025816
 7,-0.00090203,-0.00280370,-0.00815279,-0.01087872,-0.06313099,-0.21533
 395,-0.13507655,-0.00310671,-0.00148093,-0.00302224,-0.00082651,0.0039
 8159,-0.00307074,0.00018584,-0.00008111,0.00086842,-0.00001389,-0.0000
 0836,0.00000160,-0.00000518,-0.00000252,0.00000085,-0.00001829,-0.0000
 1804,0.00000845,0.00003193,0.00000514,-0.00002026,-0.00000843,-0.00000
 285,-0.00000997,0.00164138,-0.00120549,0.00191104,0.07104037,0.2220189
 9,-0.00002244,-0.00001522,0.00000432,-0.00000038,0.00001789,0.00000153
 ,-0.00001491,0.00002144,-0.00000253,0.00000845,-0.00002483,-0.00005398
 ,0.00007402,0.00023827,0.00030912,-0.00001195,-0.00000928,-0.00007725,
 -0.00002092,-0.00010889,0.00015663,0.00001123,0.00002690,-0.00006193,0
 .00003987,0.00013852,-0.00010510,0.00363328,-0.00097524,0.00325289,0.0
 0270058,0.00568145,0.00769244,-0.03761609,-0.13535845,-0.15377608,-0.0
 0847575,-0.01935821,-0.00945429,0.00546295,-0.00280571,-0.00103205,0.0
 0056294,0.00088028,-0.00058193,-0.00000052,-0.00000403,0.00000471,-0.0
 0000335,-0.00000022,-0.00000267,0.00000613,0.00000215,0.00000242,-0.00
 002876,0.00000576,-0.00000197,-0.00007508,-0.00006036,0.00000551,-0.00
 187446,0.00149334,-0.00089239,0.03783180,0.14887841,0.15609426,0.00004
 548,0.00011597,-0.00001996,0.00004556,-0.00009331,-0.00000210,-0.00010
 627,0.00001155,0.00005541,0.00009879,0.00007585,-0.00001516,-0.0002775
 9,0.00033101,-0.00036396,-0.00014539,-0.00008000,0.00003837,0.00004151
 ,-0.00009942,0.00005382,-0.00002122,0.00004705,-0.00001384,-0.00002358
 ,0.00006426,-0.00006771,0.00018042,0.00072537,-0.00030205,0.00162998,-
 0.00052581,0.00504612,-0.00981801,-0.01052221,0.00151092,-0.24508460,-
 0.13132778,0.05447538,-0.00243642,-0.00260529,0.00310822,0.00324835,-0
 .00307357,0.00072299,-0.00001004,-0.00000197,-0.00000343,-0.00000316,-
 0.00000301,0.00000244,-0.00000332,-0.00000404,-0.00000923,-0.00001022,
 0.00002743,-0.00000602,-0.00001377,-0.00003958,0.00004245,-0.00054927,
 -0.00051952,0.00003699,-0.00066446,0.00182813,-0.00137198,0.25489550,-
 0.00007512,-0.00013488,0.00000532,-0.00008275,0.00011120,0.00000928,0.
 00014880,0.00002540,-0.00004958,-0.00011838,-0.00014332,0.00006047,0.0
 0034655,-0.00026839,0.00043915,0.00015245,0.00007216,-0.00003594,0.000
 06091,0.00000264,-0.00004059,-0.00003978,0.00002222,0.00002822,-0.0000
 2454,-0.00002230,0.00001992,0.00072693,-0.00064981,-0.00036061,-0.0008
 3821,0.00327944,-0.00370543,0.00704184,0.00782906,-0.00226938,-0.13124
 309,-0.13213730,0.02395664,-0.02028045,-0.00789500,0.00670792,-0.00273
 413,-0.00029878,-0.00589804,0.00000255,0.00000027,0.00000498,-0.000005
 90,0.00000116,-0.00000105,0.00000128,-0.00000600,0.00001303,-0.0000063
 1,0.00001654,-0.00003728,0.00001806,0.00000306,-0.00000229,0.00034452,
 0.00024331,-0.00017233,0.00126380,-0.00122277,0.00198966,0.14431994,0.
 13262827,0.00000273,0.00007928,0.00001279,0.00003249,-0.00005801,-0.00
 000506,-0.00009675,0.00003239,0.00002309,0.00013709,0.00006036,0.00000
 764,-0.00035656,0.00041475,-0.00022745,-0.00010585,-0.00005890,0.00006
 321,-0.00012177,-0.00009271,-0.00003013,0.00003627,0.00002950,0.000015
 61,0.00006982,0.00003389,0.00001827,-0.00012036,-0.00057015,-0.0014019
 3,0.00465891,-0.00393768,-0.00141908,0.02062630,0.01444098,-0.00019445
 ,0.05449959,0.02389522,-0.06514941,-0.01592769,-0.01004310,0.00816225,
 0.00095793,-0.00547523,0.00059816,-0.00000858,-0.00000505,-0.00000716,
 -0.00000002,0.00000323,0.00000382,0.00000115,0.00000538,-0.00001404,-0
 .00001880,0.00004068,0.00000108,-0.00001809,0.00001017,-0.00000201,0.0
 0106223,0.00069091,-0.00013477,-0.00196591,0.00152638,-0.00058083,-0.0
 6143671,-0.02263605,0.06076258,-0.00009498,0.00001324,-0.00002365,-0.0
 0007191,0.00001814,0.00003635,0.00007266,-0.00000016,-0.00003767,-0.00
 013019,-0.00003047,-0.00006135,-0.00015457,0.00078614,0.00084480,-0.00
 016007,-0.00017217,0.00004177,0.00007294,-0.00028097,0.00013454,-0.000
 05400,0.00011895,-0.00001295,-0.00001426,0.00015914,-0.00015644,-0.001
 12985,-0.00569997,0.00251065,-0.00072750,-0.00052554,-0.00084432,0.002
 83035,-0.00374266,0.00048182,0.00861469,-0.00262412,-0.00738017,-0.141
 10753,0.02971744,0.13180732,-0.00938433,0.00738096,0.02115055,-0.00002
 767,-0.00002098,0.00000686,-0.00000376,-0.00000267,-0.00000054,-0.0000
 0936,-0.00001738,0.00001137,0.00004504,0.00000880,-0.00000232,-0.00001
 615,-0.00002122,0.00003540,-0.00032008,0.00044898,-0.00028617,0.000280
 48,-0.00019960,-0.00040352,-0.00081362,0.00200347,-0.00113796,0.142853
 13,-0.00005394,0.00003966,-0.00004198,0.00000226,-0.00002118,0.0000027
 5,-0.00002293,-0.00001989,-0.00001712,0.00000868,-0.00000591,0.0000203
 2,-0.00034991,0.00052057,0.00051396,-0.00018423,-0.00018123,0.00005808
 ,0.00002375,-0.00007514,-0.00003192,-0.00001754,0.00004328,0.00003812,
 0.00001335,-0.00000477,0.00004491,-0.00533505,0.00143281,-0.00136958,-
 0.00043391,-0.00123617,0.00020971,-0.00416318,-0.00074548,-0.00501463,
 0.01468473,-0.00074235,-0.01945903,0.02989311,-0.06705850,-0.05998323,
 -0.00978980,0.00813106,0.01420478,-0.00001641,-0.00001332,0.00001055,0
 .00000239,-0.00000222,0.00000645,-0.00000851,-0.00000916,0.00000344,-0
 .00001497,-0.00002178,0.00004658,-0.00000708,0.00000464,-0.00002519,0.
 00044472,-0.00035137,0.00039571,0.00072397,-0.00017774,-0.00098188,0.0
 0145263,-0.00098200,0.00217293,-0.02892763,0.06264999,0.00003444,-0.00
 000550,0.00001031,0.00001368,0.00000705,0.00000063,0.00001342,0.000011
 73,0.00002406,0.00005522,0.00004367,-0.00007700,0.00001113,-0.00029925
 ,-0.00006761,0.00005797,0.00012042,-0.00004847,-0.00004760,0.00006695,
 0.00002267,0.00003553,-0.00004141,-0.00002392,0.,0.00000048,-0.0000256
 4,0.00244767,-0.00131187,0.00377240,-0.00086947,0.00021787,0.00009804,
 0.00022957,-0.00527137,0.00144011,0.01152672,-0.00232478,-0.00978198,0
 .13186109,-0.06015619,-0.23375484,0.00215923,-0.00274921,-0.00125872,0
 .00000982,0.00000850,-0.00000607,0.00000062,0.00000252,-0.00000980,0.0
 0000934,0.00001141,-0.00000235,0.00002983,-0.00000257,-0.00003172,-0.0
 0001197,0.00000290,-0.00000804,-0.00027592,0.00039603,-0.00039807,0.00
 058583,-0.00009081,-0.00057387,-0.00169080,0.00164244,-0.00076378,-0.1
 4487029,0.06777856,0.24235534,0.00013697,0.00043971,-0.00001880,0.0002
 5025,-0.00034121,-0.00004979,-0.00059707,-0.00007051,0.00009614,0.0004
 4619,-0.00015185,-0.00013288,-0.00002099,0.00234352,-0.00108231,-0.000
 51017,-0.00018234,0.00027028,-0.00006375,0.00015412,0.00008198,0.00005
 962,-0.00010112,-0.00007468,0.00000864,-0.00007755,-0.00004682,0.00748
 858,0.01259776,0.01082544,0.00032539,-0.00100844,0.00513003,-0.0012399
 2,0.00019897,0.00047249,-0.00161499,-0.00478851,0.00367407,-0.00178792
 ,-0.01939345,-0.01622155,-0.07274574,-0.06384223,-0.03935987,-0.000015
 62,-0.00000333,-0.00001895,0.00000796,-0.00000284,0.00001675,0.0000201
 4,0.00001946,0.00000810,0.00003511,0.00005411,0.00019458,0.00001880,0.
 00001577,0.00000560,0.00038089,0.00073861,0.00061218,-0.00025173,0.000
 36628,-0.00041113,-0.00020466,-0.00098245,-0.00076947,-0.00054947,0.00
 207552,-0.00131504,0.07042350,-0.00010199,-0.00045763,-0.00001374,-0.0
 0023666,0.00028750,-0.00000510,0.00039612,0.00007572,-0.00010226,-0.00
 050208,0.00001066,0.00057420,0.00030691,-0.00172218,0.00206010,0.00083
 436,0.00026931,-0.00029233,0.00006336,0.00016182,-0.00018139,-0.000032
 09,-0.00001122,0.00009858,0.00000883,-0.00007458,0.00021195,-0.0028569
 9,-0.00228676,-0.00422097,-0.00087197,0.00340293,-0.00278879,0.0004507
 2,0.00008157,0.00067584,-0.00517233,0.00249615,-0.00055882,-0.00274130
 ,-0.00820857,-0.01077166,-0.06299203,-0.21191428,-0.13411225,0.0000188
 8,0.00001313,-0.00002757,-0.00000060,0.00000584,-0.00001911,0.00001637
 ,-0.00000288,0.00007339,-0.00021275,-0.00021816,0.00032479,-0.00002873
 ,-0.00001171,-0.00002678,-0.00014305,-0.00013826,-0.00016650,0.0003484
 2,-0.00047949,0.00032825,-0.00010369,-0.00047417,-0.00055915,0.0016102
 6,-0.00117380,0.00194245,0.07194201,0.22036907,-0.00018638,-0.00004908
 ,0.00010288,-0.00012064,0.00008864,-0.00000263,-0.00002504,0.00043491,
 0.00013044,0.00077702,-0.00026326,-0.00000409,-0.00222706,0.00095756,-
 0.00046615,0.00012700,0.00002815,0.00017217,-0.00018576,-0.00045168,0.
 00009681,0.00001832,0.00018841,-0.00000452,0.00014201,0.00019210,-0.00
 012239,-0.00796801,-0.01941202,-0.01002608,0.00545463,-0.00249478,-0.0
 0107571,0.00040648,0.00078416,-0.00056965,0.00349655,-0.00104038,0.002
 92537,0.00278360,0.00612906,0.00796803,-0.03796723,-0.13430001,-0.1525
 3644,-0.00001474,-0.00001288,-0.00002264,-0.00005112,0.00001924,-0.000
 00200,0.00003386,0.00001329,-0.00003647,-0.00013592,0.00057661,-0.0005
 7328,-0.00002430,-0.00000136,-0.00000073,-0.00039850,-0.00103803,-0.00
 055063,-0.00041414,0.00034525,-0.00032696,0.00020982,0.00033153,0.0002
 6161,-0.00184408,0.00141771,-0.00089165,0.03811365,0.14755688,0.155554
 70\\0.00001368,0.00003458,-0.00000499,0.00002764,-0.00003459,-0.000007
 27,-0.00003962,-0.00000250,0.00001060,0.00001346,0.00003642,-0.0000085
 4,0.00001109,-0.00004788,-0.00000557,-0.00002745,0.00000655,0.00001305
 ,-0.00000173,0.00000132,-0.00000075,0.00000282,-0.00000581,-0.00000311
 ,-0.00000520,0.00000007,0.00000671,0.00000840,0.00002467,0.00001888,-0
 .00000881,-0.00000885,-0.00000478,0.00000520,-0.00000005,-0.00001004,-
 0.00000442,0.00000702,0.00001484,-0.00000866,-0.00001093,-0.00000534,0
 .00001331,0.00000078,-0.00001135,0.00000263,-0.00000385,-0.00000253,-0
 .00000050,0.00000150,0.00000009,0.00000385,0.00000059,-0.00000023,-0.0
 0000167,-0.00000010,0.00000127,0.00000007,-0.00000407,0.00000020,-0.00
 000376,-0.00000134,-0.00000222,-0.00000023,-0.00000193,0.00000004,-0.0
 0000189,0.00000145,-0.00000391,0.00000301,0.00000457,0.00000145,-0.000
 00123,0.00000241,0.00000351\\\@
 The archive entry for this job was punched.


 LIFE CAN ONLY BE UNDERSTOOD BACKWARD, BUT MUST
 BE LIVED FORWARD. -- KIRKEGAARD
 Job cpu time:       2 days  0 hours 31 minutes 41.5 seconds.
 Elapsed time:       0 days  2 hours 25 minutes 35.6 seconds.
 File lengths (MBytes):  RWF=   1222 Int=      0 D2E=      0 Chk=     82 Scr=      1
 Normal termination of Gaussian 16 at Wed Apr  2 19:46:36 2025.
