 Entering Gaussian System, Link 0=g16
 Initial command:
 /usr/local/gaussian16c01/g16/l1.exe "/scr/dhuang/Gau-595.inp" -scrdir="/scr/dhuang/"
 Entering Link 1 = /usr/local/gaussian16c01/g16/l1.exe PID=       597.
  
 Copyright (c) 1988-2019, Gaussian, Inc.  All Rights Reserved.
  
 This is part of the Gaussian(R) 16 program.  It is based on
 the Gaussian(R) 09 system (copyright 2009, Gaussian, Inc.),
 the Gaussian(R) 03 system (copyright 2003, Gaussian, Inc.),
 the Gaussian(R) 98 system (copyright 1998, Gaussian, Inc.),
 the Gaussian(R) 94 system (copyright 1995, Gaussian, Inc.),
 the Gaussian 92(TM) system (copyright 1992, Gaussian, Inc.),
 the Gaussian 90(TM) system (copyright 1990, Gaussian, Inc.),
 the Gaussian 88(TM) system (copyright 1988, Gaussian, Inc.),
 the Gaussian 86(TM) system (copyright 1986, Carnegie Mellon
 University), and the Gaussian 82(TM) system (copyright 1983,
 Carnegie Mellon University). Gaussian is a federally registered
 trademark of Gaussian, Inc.
  
 This software contains proprietary and confidential information,
 including trade secrets, belonging to Gaussian, Inc.
  
 This software is provided under written license and may be
 used, copied, transmitted, or stored only in accord with that
 written license.
  
 The following legend is applicable only to US Government
 contracts under FAR:
  
                    RESTRICTED RIGHTS LEGEND
  
 Use, reproduction and disclosure by the US Government is
 subject to restrictions as set forth in subparagraphs (a)
 and (c) of the Commercial Computer Software - Restricted
 Rights clause in FAR 52.227-19.
  
 Gaussian, Inc.
 340 Quinnipiac St., Bldg. 40, Wallingford CT 06492
  
  
 ---------------------------------------------------------------
 Warning -- This program may not be used in any manner that
 competes with the business of Gaussian, Inc. or will provide
 assistance to any competitor of Gaussian, Inc.  The licensee
 of this program is prohibited from giving any competitor of
 Gaussian, Inc. access to this program.  By using this program,
 the user acknowledges that Gaussian, Inc. is engaged in the
 business of creating and licensing software in the field of
 computational chemistry and represents and warrants to the
 licensee that it is not a competitor of Gaussian, Inc. and that
 it will not use this program in any manner prohibited above.
 ---------------------------------------------------------------
  

 Cite this work as:
 Gaussian 16, Revision C.01,
 M. J. Frisch, G. W. Trucks, H. B. Schlegel, G. E. Scuseria, 
 M. A. Robb, J. R. Cheeseman, G. Scalmani, V. Barone, 
 G. A. Petersson, H. Nakatsuji, X. Li, M. Caricato, A. V. Marenich, 
 J. Bloino, B. G. Janesko, R. Gomperts, B. Mennucci, H. P. Hratchian, 
 J. V. Ortiz, A. F. Izmaylov, J. L. Sonnenberg, D. Williams-Young, 
 F. Ding, F. Lipparini, F. Egidi, J. Goings, B. Peng, A. Petrone, 
 T. Henderson, D. Ranasinghe, V. G. Zakrzewski, J. Gao, N. Rega, 
 G. Zheng, W. Liang, M. Hada, M. Ehara, K. Toyota, R. Fukuda, 
 J. Hasegawa, M. Ishida, T. Nakajima, Y. Honda, O. Kitao, H. Nakai, 
 T. Vreven, K. Throssell, J. A. Montgomery, Jr., J. E. Peralta, 
 F. Ogliaro, M. J. Bearpark, J. J. Heyd, E. N. Brothers, K. N. Kudin, 
 V. N. Staroverov, T. A. Keith, R. Kobayashi, J. Normand, 
 K. Raghavachari, A. P. Rendell, J. C. Burant, S. S. Iyengar, 
 J. Tomasi, M. Cossi, J. M. Millam, M. Klene, C. Adamo, R. Cammi, 
 J. W. Ochterski, R. L. Martin, K. Morokuma, O. Farkas, 
 J. B. Foresman, and D. J. Fox, Gaussian, Inc., Wallingford CT, 2019.
 
 ******************************************
 Gaussian 16:  ES64L-G16RevC.01  3-Jul-2019
                 2-Apr-2025 
 ******************************************
 %nprocshared=20
 Will use up to   20 processors via shared memory.
 %mem=10000MW
 %chk=p-Cl.chk
 ------------------------------------
 # opt freq m062x/aug-cc-pvtz pop=nbo
 ------------------------------------
 1/18=20,19=15,26=3,38=1/1,3;
 2/9=110,12=2,17=6,18=5,40=1/2;
 3/5=16,6=1,7=10,11=2,25=1,30=1,71=1,74=-55/1,2,3;
 4//1;
 5/5=2,38=5/2;
 6/7=2,8=2,9=2,10=2,28=1,40=1/1,7;
 7//1,2,3,16;
 1/18=20,19=15,26=3/3(2);
 2/9=110/2;
 99//99;
 2/9=110/2;
 3/5=16,6=1,7=10,11=2,25=1,30=1,71=1,74=-55/1,2,3;
 4/5=5,16=3,69=1/1;
 5/5=2,38=5/2;
 7//1,2,3,16;
 1/18=20,19=15,26=3/3(-5);
 2/9=110/2;
 6/7=2,8=2,9=2,10=2,19=2,28=1,40=1/1,7;
 99/9=1/99;
 ----
 p-Cl
 ----
 Symbolic Z-matrix:
 Charge =  0 Multiplicity = 1
 C                    -1.217    -0.2824    0.3244 
 C                    -0.9437   -1.5962    0.3777 
 C                     0.2794   -2.043     0.0541 
 C                     1.226    -1.1699   -0.3225 
 C                     0.9481    0.1429   -0.3744 
 C                    -0.2753    0.6044   -0.0522 
 C                    -0.5374    1.9428   -0.1115 
 O                    -1.6193    2.4152    0.1668 
 O                     0.3987    2.8492   -0.4884 
 Cl                    0.6338   -3.7319    0.1218 
 H                    -2.237     0.0332    0.6002 
 H                    -1.7336   -2.3006    0.6895 
 H                     2.237    -1.5197   -0.5921 
 H                     1.7575    0.8226   -0.6895 
 H                    -0.0039    3.7319   -0.458 
 

 GradGradGradGradGradGradGradGradGradGradGradGradGradGradGradGradGradGrad
 Berny optimization.
 Initialization pass.
                           ----------------------------
                           !    Initial Parameters    !
                           ! (Angstroms and Degrees)  !
 --------------------------                            --------------------------
 ! Name  Definition              Value          Derivative Info.                !
 --------------------------------------------------------------------------------
 ! R1    R(1,2)                  1.343          estimate D2E/DX2                !
 ! R2    R(1,6)                  1.3472         estimate D2E/DX2                !
 ! R3    R(1,11)                 1.1028         estimate D2E/DX2                !
 ! R4    R(2,3)                  1.3418         estimate D2E/DX2                !
 ! R5    R(2,12)                 1.1033         estimate D2E/DX2                !
 ! R6    R(3,4)                  1.3417         estimate D2E/DX2                !
 ! R7    R(3,10)                 1.727          estimate D2E/DX2                !
 ! R8    R(4,5)                  1.3429         estimate D2E/DX2                !
 ! R9    R(4,13)                 1.1033         estimate D2E/DX2                !
 ! R10   R(5,6)                  1.3467         estimate D2E/DX2                !
 ! R11   R(5,14)                 1.1029         estimate D2E/DX2                !
 ! R12   R(6,7)                  1.3651         estimate D2E/DX2                !
 ! R13   R(7,8)                  1.2129         estimate D2E/DX2                !
 ! R14   R(7,9)                  1.3564         estimate D2E/DX2                !
 ! R15   R(9,15)                 0.9707         estimate D2E/DX2                !
 ! A1    A(2,1,6)              120.8493         estimate D2E/DX2                !
 ! A2    A(2,1,11)             117.276          estimate D2E/DX2                !
 ! A3    A(6,1,11)             121.8746         estimate D2E/DX2                !
 ! A4    A(1,2,3)              120.1121         estimate D2E/DX2                !
 ! A5    A(1,2,12)             119.3459         estimate D2E/DX2                !
 ! A6    A(3,2,12)             120.5421         estimate D2E/DX2                !
 ! A7    A(2,3,4)              119.6122         estimate D2E/DX2                !
 ! A8    A(2,3,10)             120.2156         estimate D2E/DX2                !
 ! A9    A(4,3,10)             120.1722         estimate D2E/DX2                !
 ! A10   A(3,4,5)              120.0663         estimate D2E/DX2                !
 ! A11   A(3,4,13)             120.5833         estimate D2E/DX2                !
 ! A12   A(5,4,13)             119.3504         estimate D2E/DX2                !
 ! A13   A(4,5,6)              120.9154         estimate D2E/DX2                !
 ! A14   A(4,5,14)             117.493          estimate D2E/DX2                !
 ! A15   A(6,5,14)             121.5916         estimate D2E/DX2                !
 ! A16   A(1,6,5)              118.4448         estimate D2E/DX2                !
 ! A17   A(1,6,7)              121.5536         estimate D2E/DX2                !
 ! A18   A(5,6,7)              120.0016         estimate D2E/DX2                !
 ! A19   A(6,7,8)              122.8987         estimate D2E/DX2                !
 ! A20   A(6,7,9)              122.3248         estimate D2E/DX2                !
 ! A21   A(8,7,9)              114.7765         estimate D2E/DX2                !
 ! A22   A(7,9,15)             108.2238         estimate D2E/DX2                !
 ! D1    D(6,1,2,3)              0.0047         estimate D2E/DX2                !
 ! D2    D(6,1,2,12)          -179.9994         estimate D2E/DX2                !
 ! D3    D(11,1,2,3)          -179.998          estimate D2E/DX2                !
 ! D4    D(11,1,2,12)           -0.0021         estimate D2E/DX2                !
 ! D5    D(2,1,6,5)             -0.0032         estimate D2E/DX2                !
 ! D6    D(2,1,6,7)            179.9969         estimate D2E/DX2                !
 ! D7    D(11,1,6,5)           179.9996         estimate D2E/DX2                !
 ! D8    D(11,1,6,7)            -0.0003         estimate D2E/DX2                !
 ! D9    D(1,2,3,4)             -0.0017         estimate D2E/DX2                !
 ! D10   D(1,2,3,10)           179.9959         estimate D2E/DX2                !
 ! D11   D(12,2,3,4)          -179.9975         estimate D2E/DX2                !
 ! D12   D(12,2,3,10)            0.0002         estimate D2E/DX2                !
 ! D13   D(2,3,4,5)             -0.0027         estimate D2E/DX2                !
 ! D14   D(2,3,4,13)          -179.9945         estimate D2E/DX2                !
 ! D15   D(10,3,4,5)           179.9996         estimate D2E/DX2                !
 ! D16   D(10,3,4,13)            0.0079         estimate D2E/DX2                !
 ! D17   D(3,4,5,6)              0.0042         estimate D2E/DX2                !
 ! D18   D(3,4,5,14)          -179.9997         estimate D2E/DX2                !
 ! D19   D(13,4,5,6)           179.9961         estimate D2E/DX2                !
 ! D20   D(13,4,5,14)           -0.0078         estimate D2E/DX2                !
 ! D21   D(4,5,6,1)             -0.0012         estimate D2E/DX2                !
 ! D22   D(4,5,6,7)            179.9986         estimate D2E/DX2                !
 ! D23   D(14,5,6,1)          -179.9972         estimate D2E/DX2                !
 ! D24   D(14,5,6,7)             0.0027         estimate D2E/DX2                !
 ! D25   D(1,6,7,8)              0.001          estimate D2E/DX2                !
 ! D26   D(1,6,7,9)            179.9983         estimate D2E/DX2                !
 ! D27   D(5,6,7,8)           -179.9989         estimate D2E/DX2                !
 ! D28   D(5,6,7,9)             -0.0016         estimate D2E/DX2                !
 ! D29   D(6,7,9,15)          -179.9977         estimate D2E/DX2                !
 ! D30   D(8,7,9,15)            -0.0002         estimate D2E/DX2                !
 --------------------------------------------------------------------------------
 Trust Radius=3.00D-01 FncErr=1.00D-07 GrdErr=1.00D-06 EigMax=2.50D+02 EigMin=1.00D-04
 Number of steps in this run=     77 maximum allowed number of steps=    100.
 GradGradGradGradGradGradGradGradGradGradGradGradGradGradGradGradGradGrad

                          Input orientation:                          
 ---------------------------------------------------------------------
 Center     Atomic      Atomic             Coordinates (Angstroms)
 Number     Number       Type             X           Y           Z
 ---------------------------------------------------------------------
      1          6           0       -1.217000   -0.282400    0.324400
      2          6           0       -0.943700   -1.596200    0.377700
      3          6           0        0.279400   -2.043000    0.054100
      4          6           0        1.226000   -1.169900   -0.322500
      5          6           0        0.948100    0.142900   -0.374400
      6          6           0       -0.275300    0.604400   -0.052200
      7          6           0       -0.537400    1.942800   -0.111500
      8          8           0       -1.619300    2.415200    0.166800
      9          8           0        0.398700    2.849200   -0.488400
     10         17           0        0.633800   -3.731900    0.121800
     11          1           0       -2.237000    0.033200    0.600200
     12          1           0       -1.733600   -2.300600    0.689500
     13          1           0        2.237000   -1.519700   -0.592100
     14          1           0        1.757500    0.822600   -0.689500
     15          1           0       -0.003900    3.731900   -0.458000
 ---------------------------------------------------------------------
                    Distance matrix (angstroms):
                    1          2          3          4          5
     1  C    0.000000
     2  C    1.342983   0.000000
     3  C    2.326368   1.341760   0.000000
     4  C    2.678504   2.319399   1.341709   0.000000
     5  C    2.314489   2.677505   2.325711   1.342895   0.000000
     6  C    1.347234   2.339704   2.706976   2.339894   1.346664
     7  C    2.367146   3.595680   4.072000   3.583713   2.348503
     8  O    2.731983   4.073358   4.846990   4.603052   3.470992
     9  O    3.616359   4.723743   4.923633   4.106716   2.763855
    10  Cl   3.919893   2.667434   1.727011   2.666823   3.919065
    11  H    1.102755   2.092146   3.307733   3.780370   3.332678
    12  H    2.115019   1.103332   2.126561   3.325937   3.780753
    13  H    3.781666   3.326141   2.126879   1.103252   2.114922
    14  H    3.331166   3.779681   3.308985   2.094573   1.102909
    15  H    4.265954   5.474511   5.804479   5.055557   3.714056
                    6          7          8          9         10
     6  C    0.000000
     7  C    1.365111   0.000000
     8  O    2.265677   1.212897   0.000000
     9  O    2.384046   1.356428   2.165633   0.000000
    10  Cl   4.433987   5.798996   6.547161   6.613508   0.000000
    11  H    2.144799   2.653626   2.498662   4.007720   4.758817
    12  H    3.334034   4.480953   4.746056   5.696893   2.824090
    13  H    3.333908   4.462867   5.561512   4.741032   2.823780
    14  H    2.141504   2.618301   3.830457   2.448241   4.760712
    15  H    3.165373   1.898832   2.175682   0.970655   7.513397
                   11         12         13         14         15
    11  H    0.000000
    12  H    2.389144   0.000000
    13  H    4.883621   4.244758   0.000000
    14  H    4.271125   4.883011   2.392859   0.000000
    15  H    4.448247   6.379630   5.711297   3.408834   0.000000
 Stoichiometry    C7H5ClO2
 Framework group  C1[X(C7H5ClO2)]
 Deg. of freedom    39
 Full point group                 C1      NOp   1
 Largest Abelian subgroup         C1      NOp   1
 Largest concise Abelian subgroup C1      NOp   1
                         Standard orientation:                         
 ---------------------------------------------------------------------
 Center     Atomic      Atomic             Coordinates (Angstroms)
 Number     Number       Type             X           Y           Z
 ---------------------------------------------------------------------
      1          6           0       -0.352786    1.198372   -0.000016
      2          6           0        0.989848    1.167740    0.000040
      3          6           0        1.636350   -0.007997    0.000021
      4          6           0        0.933658   -1.150978   -0.000019
      5          6           0       -0.408767   -1.115440    0.000016
      6          6           0       -1.069826    0.057805    0.000005
      7          6           0       -2.434862    0.072166    0.000013
      8          8           0       -3.082903    1.097428   -0.000016
      9          8           0       -3.172186   -1.066364    0.000000
     10         17           0        3.362837   -0.050508   -0.000014
     11          1           0       -0.835666    2.189783   -0.000032
     12          1           0        1.552366    2.116905    0.000031
     13          1           0        1.448778   -2.126589    0.000056
     14          1           0       -0.943627   -2.079977   -0.000014
     15          1           0       -4.111053   -0.819992   -0.000028
 ---------------------------------------------------------------------
 Rotational constants (GHZ):           4.1770232           0.5781672           0.5078698
 Standard basis: Aug-CC-pVTZ (5D, 7F)
 There are   679 symmetry adapted cartesian basis functions of A   symmetry.
 There are   579 symmetry adapted basis functions of A   symmetry.
   579 basis functions,   897 primitive gaussians,   679 cartesian basis functions
    40 alpha electrons       40 beta electrons
       nuclear repulsion energy       559.4217099571 Hartrees.
 NAtoms=   15 NActive=   15 NUniq=   15 SFac= 1.00D+00 NAtFMM=   60 NAOKFM=F Big=F
 Integral buffers will be    131072 words long.
 Raffenetti 2 integral format.
 Two-electron integral symmetry is turned on.
 One-electron integrals computed using PRISM.
 NBasis=   579 RedAO= T EigKep=  1.05D-06  NBF=   579
 NBsUse=   577 1.00D-06 EigRej=  6.60D-07 NBFU=   577
 ExpMin= 2.53D-02 ExpMax= 4.56D+05 ExpMxC= 1.44D+03 IAcc=3 IRadAn=         5 AccDes= 0.00D+00
 Harris functional with IExCor= 1009 and IRadAn=       5 diagonalized for initial guess.
 HarFok:  IExCor= 1009 AccDes= 0.00D+00 IRadAn=         5 IDoV= 1 UseB2=F ITyADJ=14
 ICtDFT=  3500011 ScaDFX=  1.000000  1.000000  1.000000  1.000000
 FoFCou: FMM=F IPFlag=           0 FMFlag=      100000 FMFlg1=           0
         NFxFlg=           0 DoJE=T BraDBF=F KetDBF=T FulRan=T
         wScrn=  0.000000 ICntrl=       500 IOpCl=  0 I1Cent=   200000004 NGrid=           0
         NMat0=    1 NMatS0=      1 NMatT0=    0 NMatD0=    1 NMtDS0=    0 NMtDT0=    0
 Petite list used in FoFCou.
 Requested convergence on RMS density matrix=1.00D-08 within 128 cycles.
 Requested convergence on MAX density matrix=1.00D-06.
 Requested convergence on             energy=1.00D-06.
 No special actions if energy rises.
 SCF Done:  E(RM062X) =  -880.400462298     A.U. after   14 cycles
            NFock= 14  Conv=0.47D-08     -V/T= 2.0025

 **********************************************************************

            Population analysis using the SCF Density.

 **********************************************************************

 Orbital symmetries:
       Occupied  (A) (A) (A) (A) (A) (A) (A) (A) (A) (A) (A) (A)
                 (A) (A) (A) (A) (A) (A) (A) (A) (A) (A) (A) (A)
                 (A) (A) (A) (A) (A) (A) (A) (A) (A) (A) (A) (A)
                 (A) (A) (A) (A)
       Virtual   (A) (A) (A) (A) (A) (A) (A) (A) (A) (A) (A) (A)
                 (A) (A) (A) (A) (A) (A) (A) (A) (A) (A) (A) (A)
                 (A) (A) (A) (A) (A) (A) (A) (A) (A) (A) (A) (A)
                 (A) (A) (A) (A) (A) (A) (A) (A) (A) (A) (A) (A)
                 (A) (A) (A) (A) (A) (A) (A) (A) (A) (A) (A) (A)
                 (A) (A) (A) (A) (A) (A) (A) (A) (A) (A) (A) (A)
                 (A) (A) (A) (A) (A) (A) (A) (A) (A) (A) (A) (A)
                 (A) (A) (A) (A) (A) (A) (A) (A) (A) (A) (A) (A)
                 (A) (A) (A) (A) (A) (A) (A) (A) (A) (A) (A) (A)
                 (A) (A) (A) (A) (A) (A) (A) (A) (A) (A) (A) (A)
                 (A) (A) (A) (A) (A) (A) (A) (A) (A) (A) (A) (A)
                 (A) (A) (A) (A) (A) (A) (A) (A) (A) (A) (A) (A)
                 (A) (A) (A) (A) (A) (A) (A) (A) (A) (A) (A) (A)
                 (A) (A) (A) (A) (A) (A) (A) (A) (A) (A) (A) (A)
                 (A) (A) (A) (A) (A) (A) (A) (A) (A) (A) (A) (A)
                 (A) (A) (A) (A) (A) (A) (A) (A) (A) (A) (A) (A)
                 (A) (A) (A) (A) (A) (A) (A) (A) (A) (A) (A) (A)
                 (A) (A) (A) (A) (A) (A) (A) (A) (A) (A) (A) (A)
                 (A) (A) (A) (A) (A) (A) (A) (A) (A) (A) (A) (A)
                 (A) (A) (A) (A) (A) (A) (A) (A) (A) (A) (A) (A)
                 (A) (A) (A) (A) (A) (A) (A) (A) (A) (A) (A) (A)
                 (A) (A) (A) (A) (A) (A) (A) (A) (A) (A) (A) (A)
                 (A) (A) (A) (A) (A) (A) (A) (A) (A) (A) (A) (A)
                 (A) (A) (A) (A) (A) (A) (A) (A) (A) (A) (A) (A)
                 (A) (A) (A) (A) (A) (A) (A) (A) (A) (A) (A) (A)
                 (A) (A) (A) (A) (A) (A) (A) (A) (A) (A) (A) (A)
                 (A) (A) (A) (A) (A) (A) (A) (A) (A) (A) (A) (A)
                 (A) (A) (A) (A) (A) (A) (A) (A) (A) (A) (A) (A)
                 (A) (A) (A) (A) (A) (A) (A) (A) (A) (A) (A) (A)
                 (A) (A) (A) (A) (A) (A) (A) (A) (A) (A) (A) (A)
                 (A) (A) (A) (A) (A) (A) (A) (A) (A) (A) (A) (A)
                 (A) (A) (A) (A) (A) (A) (A) (A) (A) (A) (A) (A)
                 (A) (A) (A) (A) (A) (A) (A) (A) (A) (A) (A) (A)
                 (A) (A) (A) (A) (A) (A) (A) (A) (A) (A) (A) (A)
                 (A) (A) (A) (A) (A) (A) (A) (A) (A) (A) (A) (A)
                 (A) (A) (A) (A) (A) (A) (A) (A) (A) (A) (A) (A)
                 (A) (A) (A) (A) (A) (A) (A) (A) (A) (A) (A) (A)
                 (A) (A) (A) (A) (A) (A) (A) (A) (A) (A) (A) (A)
                 (A) (A) (A) (A) (A) (A) (A) (A) (A) (A) (A) (A)
                 (A) (A) (A) (A) (A) (A) (A) (A) (A) (A) (A) (A)
                 (A) (A) (A) (A) (A) (A) (A) (A) (A) (A) (A) (A)
                 (A) (A) (A) (A) (A) (A) (A) (A) (A) (A) (A) (A)
                 (A) (A) (A) (A) (A) (A) (A) (A) (A) (A) (A) (A)
                 (A) (A) (A) (A) (A) (A) (A) (A) (A) (A) (A) (A)
                 (A) (A) (A) (A) (A) (A) (A) (A) (A)
 The electronic state is 1-A.
 Alpha  occ. eigenvalues -- -102.69415 -19.67205 -19.61154 -10.67677 -10.61961
 Alpha  occ. eigenvalues --  -10.56757 -10.56709 -10.56315 -10.56287 -10.56141
 Alpha  occ. eigenvalues --   -9.83135  -7.55368  -7.54830  -7.54799  -1.24391
 Alpha  occ. eigenvalues --   -1.13452  -1.04206  -0.97865  -0.89301  -0.88849
 Alpha  occ. eigenvalues --   -0.76927  -0.73339  -0.69129  -0.64379  -0.59262
 Alpha  occ. eigenvalues --   -0.56600  -0.56278  -0.55467  -0.53194  -0.51796
 Alpha  occ. eigenvalues --   -0.50202  -0.49109  -0.45406  -0.43282  -0.42850
 Alpha  occ. eigenvalues --   -0.39794  -0.39401  -0.36127  -0.34823  -0.32873
 Alpha virt. eigenvalues --   -0.04226  -0.00883   0.00013   0.00203   0.00532
 Alpha virt. eigenvalues --    0.01827   0.02762   0.02911   0.03251   0.04406
 Alpha virt. eigenvalues --    0.04756   0.05739   0.06078   0.06810   0.07186
 Alpha virt. eigenvalues --    0.07915   0.08341   0.08544   0.08556   0.09266
 Alpha virt. eigenvalues --    0.09355   0.09806   0.10104   0.10483   0.10671
 Alpha virt. eigenvalues --    0.10672   0.11308   0.11834   0.12743   0.13687
 Alpha virt. eigenvalues --    0.14051   0.14619   0.15385   0.15676   0.15918
 Alpha virt. eigenvalues --    0.17098   0.17938   0.18801   0.19579   0.19850
 Alpha virt. eigenvalues --    0.20012   0.20597   0.21025   0.21323   0.22006
 Alpha virt. eigenvalues --    0.22617   0.22815   0.23066   0.23373   0.23383
 Alpha virt. eigenvalues --    0.24536   0.25159   0.26025   0.26361   0.26454
 Alpha virt. eigenvalues --    0.26957   0.27641   0.27674   0.29587   0.29718
 Alpha virt. eigenvalues --    0.30597   0.30840   0.31444   0.31492   0.32207
 Alpha virt. eigenvalues --    0.33008   0.33240   0.34470   0.34734   0.35206
 Alpha virt. eigenvalues --    0.35652   0.35789   0.36976   0.37252   0.37268
 Alpha virt. eigenvalues --    0.37836   0.38123   0.38240   0.38948   0.39085
 Alpha virt. eigenvalues --    0.39184   0.40000   0.41316   0.41387   0.41615
 Alpha virt. eigenvalues --    0.41812   0.42515   0.43703   0.44627   0.44922
 Alpha virt. eigenvalues --    0.45974   0.46421   0.46943   0.46963   0.48405
 Alpha virt. eigenvalues --    0.49386   0.49759   0.51365   0.51901   0.52966
 Alpha virt. eigenvalues --    0.54052   0.54711   0.54905   0.55320   0.55840
 Alpha virt. eigenvalues --    0.56556   0.57829   0.58085   0.58611   0.59090
 Alpha virt. eigenvalues --    0.60635   0.61004   0.61793   0.62605   0.63735
 Alpha virt. eigenvalues --    0.65187   0.65274   0.65598   0.66435   0.66808
 Alpha virt. eigenvalues --    0.67026   0.68421   0.69634   0.70629   0.71711
 Alpha virt. eigenvalues --    0.71890   0.73389   0.73529   0.73748   0.74349
 Alpha virt. eigenvalues --    0.74477   0.74814   0.75705   0.76468   0.76902
 Alpha virt. eigenvalues --    0.77103   0.77623   0.78397   0.78670   0.79568
 Alpha virt. eigenvalues --    0.79732   0.80196   0.80919   0.82199   0.82307
 Alpha virt. eigenvalues --    0.82855   0.82860   0.83325   0.84279   0.84399
 Alpha virt. eigenvalues --    0.84994   0.85996   0.86622   0.86701   0.87711
 Alpha virt. eigenvalues --    0.88351   0.88839   0.89818   0.90059   0.90799
 Alpha virt. eigenvalues --    0.91642   0.92880   0.93212   0.93381   0.94353
 Alpha virt. eigenvalues --    0.95123   0.95516   0.95935   0.96372   0.96812
 Alpha virt. eigenvalues --    0.97371   0.97507   0.98398   0.99504   1.00595
 Alpha virt. eigenvalues --    1.00716   1.01727   1.02798   1.02928   1.04332
 Alpha virt. eigenvalues --    1.05185   1.05654   1.05863   1.07363   1.08396
 Alpha virt. eigenvalues --    1.08979   1.09658   1.09924   1.12055   1.12204
 Alpha virt. eigenvalues --    1.12703   1.13866   1.14035   1.14562   1.15646
 Alpha virt. eigenvalues --    1.16662   1.17949   1.19385   1.20277   1.20933
 Alpha virt. eigenvalues --    1.22719   1.22888   1.23257   1.24463   1.24809
 Alpha virt. eigenvalues --    1.25235   1.27922   1.29481   1.31252   1.31345
 Alpha virt. eigenvalues --    1.32140   1.33339   1.34336   1.34930   1.35140
 Alpha virt. eigenvalues --    1.35233   1.38709   1.39658   1.40155   1.41399
 Alpha virt. eigenvalues --    1.41452   1.42983   1.43905   1.45364   1.46267
 Alpha virt. eigenvalues --    1.47965   1.49050   1.49113   1.50799   1.51380
 Alpha virt. eigenvalues --    1.52119   1.52924   1.53450   1.54074   1.57125
 Alpha virt. eigenvalues --    1.57799   1.57890   1.58513   1.60600   1.60708
 Alpha virt. eigenvalues --    1.61926   1.63422   1.64968   1.66062   1.66429
 Alpha virt. eigenvalues --    1.67660   1.67781   1.68377   1.68779   1.69632
 Alpha virt. eigenvalues --    1.70479   1.71212   1.72285   1.74921   1.75755
 Alpha virt. eigenvalues --    1.77679   1.78409   1.79534   1.81356   1.81956
 Alpha virt. eigenvalues --    1.82031   1.83744   1.84192   1.85734   1.87666
 Alpha virt. eigenvalues --    1.88528   1.89190   1.89673   1.90090   1.91200
 Alpha virt. eigenvalues --    1.92201   1.92577   1.93506   1.94962   1.97088
 Alpha virt. eigenvalues --    2.00584   2.00914   2.01786   2.04192   2.06450
 Alpha virt. eigenvalues --    2.07870   2.08584   2.11296   2.11310   2.12692
 Alpha virt. eigenvalues --    2.13058   2.13597   2.14707   2.17583   2.21962
 Alpha virt. eigenvalues --    2.23087   2.23464   2.24423   2.25069   2.27699
 Alpha virt. eigenvalues --    2.28743   2.30245   2.30385   2.31553   2.32193
 Alpha virt. eigenvalues --    2.33144   2.35777   2.36207   2.38828   2.39854
 Alpha virt. eigenvalues --    2.41026   2.42073   2.43101   2.43379   2.45155
 Alpha virt. eigenvalues --    2.48887   2.48971   2.50472   2.52021   2.54838
 Alpha virt. eigenvalues --    2.56004   2.56584   2.56930   2.59757   2.63397
 Alpha virt. eigenvalues --    2.66095   2.69330   2.69865   2.69936   2.73541
 Alpha virt. eigenvalues --    2.73786   2.76083   2.77275   2.77673   2.81093
 Alpha virt. eigenvalues --    2.81364   2.82630   2.84194   2.84831   2.86664
 Alpha virt. eigenvalues --    2.88456   2.90372   2.92037   2.92203   2.95092
 Alpha virt. eigenvalues --    2.95292   2.96194   2.96851   2.98069   2.99579
 Alpha virt. eigenvalues --    2.99804   3.02797   3.04777   3.06007   3.08058
 Alpha virt. eigenvalues --    3.09145   3.10923   3.11543   3.11704   3.13410
 Alpha virt. eigenvalues --    3.13932   3.14263   3.15240   3.16188   3.18024
 Alpha virt. eigenvalues --    3.19458   3.20285   3.21554   3.23478   3.25266
 Alpha virt. eigenvalues --    3.25482   3.28287   3.28521   3.29656   3.32819
 Alpha virt. eigenvalues --    3.33270   3.35577   3.38665   3.39927   3.40245
 Alpha virt. eigenvalues --    3.42897   3.43195   3.43918   3.45585   3.47979
 Alpha virt. eigenvalues --    3.48487   3.52530   3.53426   3.54062   3.54672
 Alpha virt. eigenvalues --    3.55616   3.56647   3.58191   3.59738   3.60593
 Alpha virt. eigenvalues --    3.61337   3.62915   3.64332   3.65922   3.67300
 Alpha virt. eigenvalues --    3.68847   3.69009   3.69970   3.72836   3.77134
 Alpha virt. eigenvalues --    3.78517   3.79911   3.81590   3.81763   3.83471
 Alpha virt. eigenvalues --    3.84639   3.85241   3.86679   3.87908   3.88755
 Alpha virt. eigenvalues --    3.89016   3.90630   3.92017   3.92109   3.94667
 Alpha virt. eigenvalues --    3.95716   3.96247   3.97332   3.98415   4.00503
 Alpha virt. eigenvalues --    4.04585   4.04643   4.06471   4.06778   4.11542
 Alpha virt. eigenvalues --    4.11603   4.13079   4.13160   4.13900   4.14770
 Alpha virt. eigenvalues --    4.15656   4.18549   4.20503   4.21854   4.23473
 Alpha virt. eigenvalues --    4.24864   4.26885   4.29461   4.32514   4.35533
 Alpha virt. eigenvalues --    4.39087   4.39334   4.41412   4.43167   4.44457
 Alpha virt. eigenvalues --    4.48839   4.50874   4.51609   4.55401   4.56594
 Alpha virt. eigenvalues --    4.60245   4.61471   4.63366   4.65275   4.65356
 Alpha virt. eigenvalues --    4.66213   4.66966   4.68548   4.74278   4.74886
 Alpha virt. eigenvalues --    4.75093   4.76920   4.78738   4.82717   4.83110
 Alpha virt. eigenvalues --    4.85094   4.85248   4.90332   4.92889   4.99023
 Alpha virt. eigenvalues --    4.99263   4.99985   5.01965   5.04132   5.04697
 Alpha virt. eigenvalues --    5.04772   5.07317   5.11854   5.14057   5.23008
 Alpha virt. eigenvalues --    5.26359   5.33148   5.34221   5.38695   5.42366
 Alpha virt. eigenvalues --    5.50348   5.55666   5.66839   5.74839   5.75154
 Alpha virt. eigenvalues --    5.83380   5.88129   5.89431   5.93973   5.99512
 Alpha virt. eigenvalues --    6.08094   6.13483   6.23728   6.24979   6.27765
 Alpha virt. eigenvalues --    6.36832   6.38615   6.43077   6.44461   6.49578
 Alpha virt. eigenvalues --    6.54810   6.55421   6.62919   6.67547   6.71271
 Alpha virt. eigenvalues --    6.75005   6.79554   6.82294   6.85115   6.87312
 Alpha virt. eigenvalues --    6.90793   6.96092   7.08051   7.08899   7.13884
 Alpha virt. eigenvalues --    7.17783   7.32565   7.39338   7.51558   7.70098
 Alpha virt. eigenvalues --    7.88268   8.03867   8.31698  15.38406  15.67730
 Alpha virt. eigenvalues --   16.91648  17.62596  17.95458  18.50657  19.84672
 Alpha virt. eigenvalues --   20.14153  20.60971
          Condensed to atoms (all electrons):
               1          2          3          4          5          6
     1  C    7.719452  -0.053485   0.023480  -0.252467   0.240085  -0.825300
     2  C   -0.053485   7.057210  -0.239538  -0.051615  -0.323284   0.077010
     3  C    0.023480  -0.239538   6.158643  -0.263001  -0.005374  -0.326160
     4  C   -0.252467  -0.051615  -0.263001   7.234429  -0.129432  -0.016574
     5  C    0.240085  -0.323284  -0.005374  -0.129432   7.611754  -0.649982
     6  C   -0.825300   0.077010  -0.326160  -0.016574  -0.649982   7.207608
     7  C   -0.451608   0.021883   0.028845   0.119073  -0.580264  -0.683574
     8  O    0.028830  -0.016027  -0.005413  -0.010636   0.022938  -0.203853
     9  O    0.025335  -0.005533  -0.001215  -0.002246  -0.008701  -0.060524
    10  Cl   0.001677  -0.085793   0.181606  -0.060932  -0.006200  -0.024786
    11  H    0.511810  -0.359515   0.032848   0.027097   0.007621  -0.407879
    12  H   -0.224588   0.508315  -0.217608   0.015701   0.043528   0.006792
    13  H    0.044585   0.010597  -0.242805   0.530777  -0.172529  -0.008366
    14  H    0.049315   0.002307   0.072163  -0.417559   0.461954  -0.384799
    15  H   -0.023832   0.001781   0.000665   0.000844  -0.010537   0.039931
               7          8          9         10         11         12
     1  C   -0.451608   0.028830   0.025335   0.001677   0.511810  -0.224588
     2  C    0.021883  -0.016027  -0.005533  -0.085793  -0.359515   0.508315
     3  C    0.028845  -0.005413  -0.001215   0.181606   0.032848  -0.217608
     4  C    0.119073  -0.010636  -0.002246  -0.060932   0.027097   0.015701
     5  C   -0.580264   0.022938  -0.008701  -0.006200   0.007621   0.043528
     6  C   -0.683574  -0.203853  -0.060524  -0.024786  -0.407879   0.006792
     7  C    7.213216  -0.011336   0.044419  -0.007417   0.136695  -0.009140
     8  O   -0.011336   9.309729  -0.095308  -0.000114  -0.000112  -0.003765
     9  O    0.044419  -0.095308   8.600772  -0.000052   0.001225  -0.000483
    10  Cl  -0.007417  -0.000114  -0.000052  17.374526  -0.002240  -0.025208
    11  H    0.136695  -0.000112   0.001225  -0.002240   1.033048  -0.078180
    12  H   -0.009140  -0.003765  -0.000483  -0.025208  -0.078180   0.641882
    13  H   -0.002405  -0.000104  -0.000303  -0.033955  -0.002604   0.004231
    14  H    0.024228   0.007900  -0.061103  -0.003455   0.013120  -0.005080
    15  H    0.057332  -0.107613   0.144669   0.000015  -0.002331   0.000133
              13         14         15
     1  C    0.044585   0.049315  -0.023832
     2  C    0.010597   0.002307   0.001781
     3  C   -0.242805   0.072163   0.000665
     4  C    0.530777  -0.417559   0.000844
     5  C   -0.172529   0.461954  -0.010537
     6  C   -0.008366  -0.384799   0.039931
     7  C   -0.002405   0.024228   0.057332
     8  O   -0.000104   0.007900  -0.107613
     9  O   -0.000303  -0.061103   0.144669
    10  Cl  -0.033955  -0.003455   0.000015
    11  H   -0.002604   0.013120  -0.002331
    12  H    0.004231  -0.005080   0.000133
    13  H    0.626807  -0.080537   0.000217
    14  H   -0.080537   1.165845  -0.002638
    15  H    0.000217  -0.002638   0.595959
 Mulliken charges:
               1
     1  C   -0.813290
     2  C   -0.544314
     3  C    0.802865
     4  C   -0.723459
     5  C   -0.501577
     6  C    2.260457
     7  C    0.100052
     8  O   -0.915117
     9  O   -0.580951
    10  Cl  -0.307672
    11  H    0.089397
    12  H    0.343471
    13  H    0.326393
    14  H    0.158341
    15  H    0.305405
 Sum of Mulliken charges =   0.00000
 Mulliken charges with hydrogens summed into heavy atoms:
               1
     1  C   -0.723893
     2  C   -0.200843
     3  C    0.802865
     4  C   -0.397067
     5  C   -0.343236
     6  C    2.260457
     7  C    0.100052
     8  O   -0.915117
     9  O   -0.275546
    10  Cl  -0.307672
 Electronic spatial extent (au):  <R**2>=           1975.1247
 Charge=              0.0000 electrons
 Dipole moment (field-independent basis, Debye):
    X=              0.5300    Y=             -1.2225    Z=              0.0000  Tot=              1.3325
 Quadrupole moment (field-independent basis, Debye-Ang):
   XX=            -66.0825   YY=            -61.2173   ZZ=            -65.3563
   XY=              6.0329   XZ=              0.0002   YZ=              0.0000
 Traceless Quadrupole moment (field-independent basis, Debye-Ang):
   XX=             -1.8638   YY=              3.0014   ZZ=             -1.1376
   XY=              6.0329   XZ=              0.0002   YZ=              0.0000
 Octapole moment (field-independent basis, Debye-Ang**2):
  XXX=            -36.9499  YYY=             -0.7207  ZZZ=             -0.0002  XYY=             11.5468
  XXY=            -25.1859  XXZ=             -0.0007  XZZ=             -5.0083  YZZ=             -0.0200
  YYZ=              0.0001  XYZ=             -0.0005
 Hexadecapole moment (field-independent basis, Debye-Ang**3):
 XXXX=          -1833.8342 YYYY=           -357.1633 ZZZZ=            -69.0827 XXXY=            112.1993
 XXXZ=              0.0017 YYYX=              6.8527 YYYZ=             -0.0008 ZZZX=              0.0000
 ZZZY=             -0.0002 XXYY=           -432.6756 XXZZ=           -354.0150 YYZZ=            -82.0223
 XXYZ=              0.0011 YYXZ=              0.0010 ZZXY=              0.1220
 N-N= 5.594217099571D+02 E-N=-3.194189068635D+03  KE= 8.782177146188D+02
 ******************************Gaussian NBO Version 3.1******************************
             N A T U R A L   A T O M I C   O R B I T A L   A N D
          N A T U R A L   B O N D   O R B I T A L   A N A L Y S I S
 ******************************Gaussian NBO Version 3.1******************************
       /RESON  / : Allow strongly delocalized NBO set

 Analyzing the SCF density

 Job title: p-Cl                                                            

 Storage needed:   1008201 in NPA,   1342976 in NBO (********** available)
 GSVD:  LWork=       49481 too small for GESVD, short by      518655 words or      518655 for optimal perf.


 NATURAL POPULATIONS:  Natural atomic orbital occupancies 
                                                          
   NAO  Atom  No  lang   Type(AO)    Occupancy      Energy
 ----------------------------------------------------------
     1    C    1  S      Cor( 1S)     1.99908     -10.39844
     2    C    1  S      Val( 2S)     0.94158      -0.19007
     3    C    1  S      Ryd( 3S)     0.00130       1.93716
     4    C    1  S      Ryd( 5S)     0.00010       2.65415
     5    C    1  S      Ryd( 4S)     0.00002       2.00025
     6    C    1  px     Val( 2p)     1.06917      -0.07329
     7    C    1  px     Ryd( 4p)     0.00377       1.94837
     8    C    1  px     Ryd( 5p)     0.00008       2.40119
     9    C    1  px     Ryd( 3p)     0.00009       1.13384
    10    C    1  py     Val( 2p)     1.14791      -0.08362
    11    C    1  py     Ryd( 4p)     0.00475       1.85674
    12    C    1  py     Ryd( 5p)     0.00004       2.19632
    13    C    1  py     Ryd( 3p)     0.00005       1.65266
    14    C    1  pz     Val( 2p)     0.92815      -0.13045
    15    C    1  pz     Ryd( 4p)     0.00060       1.04446
    16    C    1  pz     Ryd( 5p)     0.00006       1.47092
    17    C    1  pz     Ryd( 3p)     0.00002       0.85140
    18    C    1  dxy    Ryd( 3d)     0.00158       2.93713
    19    C    1  dxy    Ryd( 5d)     0.00012       3.73133
    20    C    1  dxy    Ryd( 4d)     0.00006       3.68598
    21    C    1  dxz    Ryd( 3d)     0.00045       1.64345
    22    C    1  dxz    Ryd( 5d)     0.00005       2.85480
    23    C    1  dxz    Ryd( 4d)     0.00002       2.30111
    24    C    1  dyz    Ryd( 3d)     0.00029       1.47477
    25    C    1  dyz    Ryd( 5d)     0.00005       2.96580
    26    C    1  dyz    Ryd( 4d)     0.00001       1.92381
    27    C    1  dx2y2  Ryd( 4d)     0.00197       3.26701
    28    C    1  dx2y2  Ryd( 5d)     0.00023       3.86774
    29    C    1  dx2y2  Ryd( 3d)     0.00011       3.20064
    30    C    1  dz2    Ryd( 3d)     0.00086       1.94174
    31    C    1  dz2    Ryd( 4d)     0.00010       3.84380
    32    C    1  dz2    Ryd( 5d)     0.00006       3.98497
    33    C    1  f(0)   Ryd( 4f)     0.00006       1.43303
    34    C    1  f(0)   Ryd( 5f)     0.00013       3.51955
    35    C    1  f(C1)  Ryd( 4f)     0.00034       1.96839
    36    C    1  f(C1)  Ryd( 5f)     0.00029       3.73663
    37    C    1  f(S1)  Ryd( 4f)     0.00047       1.84314
    38    C    1  f(S1)  Ryd( 5f)     0.00020       3.60749
    39    C    1  f(C2)  Ryd( 4f)     0.00020       1.47018
    40    C    1  f(C2)  Ryd( 5f)     0.00002       3.55361
    41    C    1  f(S2)  Ryd( 4f)     0.00023       1.47433
    42    C    1  f(S2)  Ryd( 5f)     0.00004       3.53448
    43    C    1  f(C3)  Ryd( 4f)     0.00031       3.46126
    44    C    1  f(C3)  Ryd( 5f)     0.00015       4.09611
    45    C    1  f(S3)  Ryd( 4f)     0.00116       1.86933
    46    C    1  f(S3)  Ryd( 5f)     0.00024       4.55552
 
    47    C    2  S      Cor( 1S)     1.99896     -10.39270
    48    C    2  S      Val( 2S)     0.94596      -0.19706
    49    C    2  S      Ryd( 3S)     0.00155       1.87730
    50    C    2  S      Ryd( 5S)     0.00011       2.42302
    51    C    2  S      Ryd( 4S)     0.00001       2.36002
    52    C    2  px     Val( 2p)     1.10554      -0.09543
    53    C    2  px     Ryd( 5p)     0.00536       1.80679
    54    C    2  px     Ryd( 4p)     0.00013       1.80121
    55    C    2  px     Ryd( 3p)     0.00002       1.44384
    56    C    2  py     Val( 2p)     1.16098      -0.11317
    57    C    2  py     Ryd( 4p)     0.00420       1.71400
    58    C    2  py     Ryd( 5p)     0.00007       1.98737
    59    C    2  py     Ryd( 3p)     0.00005       1.62055
    60    C    2  pz     Val( 2p)     1.00295      -0.13901
    61    C    2  pz     Ryd( 3p)     0.00095       0.93932
    62    C    2  pz     Ryd( 5p)     0.00001       1.26655
    63    C    2  pz     Ryd( 4p)     0.00005       1.05584
    64    C    2  dxy    Ryd( 3d)     0.00208       2.37393
    65    C    2  dxy    Ryd( 5d)     0.00019       3.48881
    66    C    2  dxy    Ryd( 4d)     0.00008       3.21395
    67    C    2  dxz    Ryd( 3d)     0.00023       1.42112
    68    C    2  dxz    Ryd( 5d)     0.00005       2.72457
    69    C    2  dxz    Ryd( 4d)     0.00005       2.04931
    70    C    2  dyz    Ryd( 3d)     0.00019       1.32186
    71    C    2  dyz    Ryd( 5d)     0.00012       2.79295
    72    C    2  dyz    Ryd( 4d)     0.00002       1.86059
    73    C    2  dx2y2  Ryd( 4d)     0.00212       3.12667
    74    C    2  dx2y2  Ryd( 5d)     0.00021       3.64304
    75    C    2  dx2y2  Ryd( 3d)     0.00005       2.52769
    76    C    2  dz2    Ryd( 3d)     0.00098       1.65904
    77    C    2  dz2    Ryd( 5d)     0.00009       4.10724
    78    C    2  dz2    Ryd( 4d)     0.00008       3.71795
    79    C    2  f(0)   Ryd( 4f)     0.00010       1.70923
    80    C    2  f(0)   Ryd( 5f)     0.00014       3.20689
    81    C    2  f(C1)  Ryd( 4f)     0.00055       2.21175
    82    C    2  f(C1)  Ryd( 5f)     0.00020       3.31324
    83    C    2  f(S1)  Ryd( 4f)     0.00072       2.09982
    84    C    2  f(S1)  Ryd( 5f)     0.00015       3.27529
    85    C    2  f(C2)  Ryd( 4f)     0.00020       1.77088
    86    C    2  f(C2)  Ryd( 5f)     0.00004       3.17458
    87    C    2  f(S2)  Ryd( 4f)     0.00013       1.81341
    88    C    2  f(S2)  Ryd( 5f)     0.00005       3.14498
    89    C    2  f(C3)  Ryd( 4f)     0.00048       3.35059
    90    C    2  f(C3)  Ryd( 5f)     0.00017       3.98212
    91    C    2  f(S3)  Ryd( 4f)     0.00075       2.14848
    92    C    2  f(S3)  Ryd( 5f)     0.00039       3.87223
 
    93    C    3  S      Cor( 1S)     1.99839     -10.46543
    94    C    3  S      Val( 2S)     0.92406      -0.23059
    95    C    3  S      Ryd( 3S)     0.00099       1.58610
    96    C    3  S      Ryd( 4S)     0.00013       2.76193
    97    C    3  S      Ryd( 5S)     0.00002       2.79976
    98    C    3  px     Val( 2p)     0.92989      -0.16984
    99    C    3  px     Ryd( 4p)     0.00636       1.48727
   100    C    3  px     Ryd( 5p)     0.00033       3.73030
   101    C    3  px     Ryd( 3p)     0.00007       1.02168
   102    C    3  py     Val( 2p)     1.09569      -0.10693
   103    C    3  py     Ryd( 4p)     0.00509       1.52644
   104    C    3  py     Ryd( 5p)     0.00002       2.28311
   105    C    3  py     Ryd( 3p)     0.00004       1.01159
   106    C    3  pz     Val( 2p)     1.02282      -0.16829
   107    C    3  pz     Ryd( 4p)     0.00116       0.77619
   108    C    3  pz     Ryd( 5p)     0.00017       2.12685
   109    C    3  pz     Ryd( 3p)     0.00004       0.62957
   110    C    3  dxy    Ryd( 4d)     0.00272       3.57034
   111    C    3  dxy    Ryd( 5d)     0.00028       4.12007
   112    C    3  dxy    Ryd( 3d)     0.00005       2.42415
   113    C    3  dxz    Ryd( 3d)     0.00176       1.44919
   114    C    3  dxz    Ryd( 5d)     0.00009       3.13672
   115    C    3  dxz    Ryd( 4d)     0.00003       1.50190
   116    C    3  dyz    Ryd( 3d)     0.00079       1.62015
   117    C    3  dyz    Ryd( 5d)     0.00001       3.07032
   118    C    3  dyz    Ryd( 4d)     0.00000       1.73452
   119    C    3  dx2y2  Ryd( 3d)     0.00075       2.71206
   120    C    3  dx2y2  Ryd( 5d)     0.00010       3.95768
   121    C    3  dx2y2  Ryd( 4d)     0.00009       3.01991
   122    C    3  dz2    Ryd( 3d)     0.00114       1.89765
   123    C    3  dz2    Ryd( 5d)     0.00009       4.12368
   124    C    3  dz2    Ryd( 4d)     0.00012       3.29556
   125    C    3  f(0)   Ryd( 4f)     0.00109       1.36442
   126    C    3  f(0)   Ryd( 5f)     0.00007       3.42931
   127    C    3  f(C1)  Ryd( 4f)     0.00086       1.62215
   128    C    3  f(C1)  Ryd( 5f)     0.00021       3.43119
   129    C    3  f(S1)  Ryd( 4f)     0.00094       1.84917
   130    C    3  f(S1)  Ryd( 5f)     0.00021       3.57776
   131    C    3  f(C2)  Ryd( 4f)     0.00098       1.43887
   132    C    3  f(C2)  Ryd( 5f)     0.00012       3.47062
   133    C    3  f(S2)  Ryd( 4f)     0.00023       1.25257
   134    C    3  f(S2)  Ryd( 5f)     0.00003       3.54235
   135    C    3  f(C3)  Ryd( 4f)     0.00132       2.47042
   136    C    3  f(C3)  Ryd( 5f)     0.00010       3.95633
   137    C    3  f(S3)  Ryd( 4f)     0.00198       1.77718
   138    C    3  f(S3)  Ryd( 5f)     0.00041       4.29229
 
   139    C    4  S      Cor( 1S)     1.99897     -10.39220
   140    C    4  S      Val( 2S)     0.94478      -0.19641
   141    C    4  S      Ryd( 3S)     0.00162       1.88178
   142    C    4  S      Ryd( 5S)     0.00011       2.43844
   143    C    4  S      Ryd( 4S)     0.00001       2.31274
   144    C    4  px     Val( 2p)     1.10085      -0.09527
   145    C    4  px     Ryd( 4p)     0.00525       1.81395
   146    C    4  px     Ryd( 5p)     0.00012       1.81534
   147    C    4  px     Ryd( 3p)     0.00002       1.40079
   148    C    4  py     Val( 2p)     1.16652      -0.11409
   149    C    4  py     Ryd( 4p)     0.00448       1.71059
   150    C    4  py     Ryd( 5p)     0.00007       2.04157
   151    C    4  py     Ryd( 3p)     0.00005       1.59498
   152    C    4  pz     Val( 2p)     1.00467      -0.13923
   153    C    4  pz     Ryd( 3p)     0.00098       0.93808
   154    C    4  pz     Ryd( 5p)     0.00001       1.28098
   155    C    4  pz     Ryd( 4p)     0.00005       1.02839
   156    C    4  dxy    Ryd( 3d)     0.00213       2.48262
   157    C    4  dxy    Ryd( 5d)     0.00021       3.66626
   158    C    4  dxy    Ryd( 4d)     0.00008       2.95087
   159    C    4  dxz    Ryd( 3d)     0.00018       1.40922
   160    C    4  dxz    Ryd( 5d)     0.00005       2.84997
   161    C    4  dxz    Ryd( 4d)     0.00004       1.93553
   162    C    4  dyz    Ryd( 3d)     0.00019       1.30992
   163    C    4  dyz    Ryd( 5d)     0.00012       2.92054
   164    C    4  dyz    Ryd( 4d)     0.00003       1.73166
   165    C    4  dx2y2  Ryd( 4d)     0.00206       3.02978
   166    C    4  dx2y2  Ryd( 5d)     0.00020       3.82020
   167    C    4  dx2y2  Ryd( 3d)     0.00005       2.38848
   168    C    4  dz2    Ryd( 3d)     0.00100       1.65459
   169    C    4  dz2    Ryd( 5d)     0.00009       4.10672
   170    C    4  dz2    Ryd( 4d)     0.00008       3.68134
   171    C    4  f(0)   Ryd( 4f)     0.00010       1.69186
   172    C    4  f(0)   Ryd( 5f)     0.00014       3.22419
   173    C    4  f(C1)  Ryd( 4f)     0.00054       2.20774
   174    C    4  f(C1)  Ryd( 5f)     0.00021       3.34122
   175    C    4  f(S1)  Ryd( 4f)     0.00071       2.07384
   176    C    4  f(S1)  Ryd( 5f)     0.00014       3.29283
   177    C    4  f(C2)  Ryd( 4f)     0.00022       1.75969
   178    C    4  f(C2)  Ryd( 5f)     0.00004       3.19030
   179    C    4  f(S2)  Ryd( 4f)     0.00013       1.77763
   180    C    4  f(S2)  Ryd( 5f)     0.00005       3.17224
   181    C    4  f(C3)  Ryd( 4f)     0.00047       3.37638
   182    C    4  f(C3)  Ryd( 5f)     0.00017       3.99780
   183    C    4  f(S3)  Ryd( 4f)     0.00082       2.11939
   184    C    4  f(S3)  Ryd( 5f)     0.00039       3.90754
 
   185    C    5  S      Cor( 1S)     1.99909     -10.39870
   186    C    5  S      Val( 2S)     0.93984      -0.19144
   187    C    5  S      Ryd( 3S)     0.00112       1.92171
   188    C    5  S      Ryd( 5S)     0.00011       2.70476
   189    C    5  S      Ryd( 4S)     0.00002       2.16896
   190    C    5  px     Val( 2p)     1.08075      -0.08029
   191    C    5  px     Ryd( 4p)     0.00353       1.94895
   192    C    5  px     Ryd( 5p)     0.00012       2.44301
   193    C    5  px     Ryd( 3p)     0.00005       1.22655
   194    C    5  py     Val( 2p)     1.13899      -0.08394
   195    C    5  py     Ryd( 4p)     0.00442       1.84577
   196    C    5  py     Ryd( 5p)     0.00004       2.63251
   197    C    5  py     Ryd( 3p)     0.00004       1.24201
   198    C    5  pz     Val( 2p)     0.94142      -0.13473
   199    C    5  pz     Ryd( 4p)     0.00070       1.02747
   200    C    5  pz     Ryd( 5p)     0.00005       1.68678
   201    C    5  pz     Ryd( 3p)     0.00004       0.66378
   202    C    5  dxy    Ryd( 3d)     0.00161       2.77738
   203    C    5  dxy    Ryd( 4d)     0.00011       3.52141
   204    C    5  dxy    Ryd( 5d)     0.00005       4.04098
   205    C    5  dxz    Ryd( 3d)     0.00055       1.64710
   206    C    5  dxz    Ryd( 5d)     0.00006       2.71352
   207    C    5  dxz    Ryd( 4d)     0.00001       2.47287
   208    C    5  dyz    Ryd( 3d)     0.00033       1.46056
   209    C    5  dyz    Ryd( 5d)     0.00005       2.82676
   210    C    5  dyz    Ryd( 4d)     0.00002       2.10540
   211    C    5  dx2y2  Ryd( 3d)     0.00189       3.30714
   212    C    5  dx2y2  Ryd( 5d)     0.00023       3.63610
   213    C    5  dx2y2  Ryd( 4d)     0.00009       3.42042
   214    C    5  dz2    Ryd( 3d)     0.00090       1.90150
   215    C    5  dz2    Ryd( 4d)     0.00012       3.86189
   216    C    5  dz2    Ryd( 5d)     0.00006       4.00617
   217    C    5  f(0)   Ryd( 4f)     0.00009       1.46770
   218    C    5  f(0)   Ryd( 5f)     0.00012       3.48374
   219    C    5  f(C1)  Ryd( 4f)     0.00040       1.99459
   220    C    5  f(C1)  Ryd( 5f)     0.00026       3.69935
   221    C    5  f(S1)  Ryd( 4f)     0.00048       1.89196
   222    C    5  f(S1)  Ryd( 5f)     0.00018       3.56848
   223    C    5  f(C2)  Ryd( 4f)     0.00025       1.49580
   224    C    5  f(C2)  Ryd( 5f)     0.00002       3.52467
   225    C    5  f(S2)  Ryd( 4f)     0.00020       1.51688
   226    C    5  f(S2)  Ryd( 5f)     0.00005       3.49945
   227    C    5  f(C3)  Ryd( 4f)     0.00035       3.47709
   228    C    5  f(C3)  Ryd( 5f)     0.00013       4.06923
   229    C    5  f(S3)  Ryd( 4f)     0.00103       1.90518
   230    C    5  f(S3)  Ryd( 5f)     0.00027       4.55780
 
   231    C    6  S      Cor( 1S)     1.99884     -10.38015
   232    C    6  S      Val( 2S)     0.88736      -0.12652
   233    C    6  S      Ryd( 3S)     0.00112       2.07386
   234    C    6  S      Ryd( 4S)     0.00008       2.49094
   235    C    6  S      Ryd( 5S)     0.00003       4.00354
   236    C    6  px     Val( 2p)     1.10412      -0.11788
   237    C    6  px     Ryd( 5p)     0.00547       2.44139
   238    C    6  px     Ryd( 4p)     0.00005       2.30264
   239    C    6  px     Ryd( 3p)     0.00005       1.13029
   240    C    6  py     Val( 2p)     1.13931      -0.11571
   241    C    6  py     Ryd( 5p)     0.00503       2.18258
   242    C    6  py     Ryd( 4p)     0.00009       2.01440
   243    C    6  py     Ryd( 3p)     0.00002       1.08216
   244    C    6  pz     Val( 2p)     1.07416      -0.14521
   245    C    6  pz     Ryd( 4p)     0.00120       0.98088
   246    C    6  pz     Ryd( 5p)     0.00010       1.89294
   247    C    6  pz     Ryd( 3p)     0.00001       0.61401
   248    C    6  dxy    Ryd( 3d)     0.00058       3.07102
   249    C    6  dxy    Ryd( 4d)     0.00036       3.45560
   250    C    6  dxy    Ryd( 5d)     0.00006       5.41272
   251    C    6  dxz    Ryd( 3d)     0.00014       1.71400
   252    C    6  dxz    Ryd( 5d)     0.00012       2.82009
   253    C    6  dxz    Ryd( 4d)     0.00002       2.28031
   254    C    6  dyz    Ryd( 3d)     0.00050       1.61852
   255    C    6  dyz    Ryd( 5d)     0.00003       2.67539
   256    C    6  dyz    Ryd( 4d)     0.00001       2.56669
   257    C    6  dx2y2  Ryd( 3d)     0.00201       3.41211
   258    C    6  dx2y2  Ryd( 4d)     0.00011       3.81769
   259    C    6  dx2y2  Ryd( 5d)     0.00002       4.85820
   260    C    6  dz2    Ryd( 3d)     0.00090       1.99808
   261    C    6  dz2    Ryd( 4d)     0.00022       3.69741
   262    C    6  dz2    Ryd( 5d)     0.00004       3.86344
   263    C    6  f(0)   Ryd( 4f)     0.00046       1.64590
   264    C    6  f(0)   Ryd( 5f)     0.00023       3.41738
   265    C    6  f(C1)  Ryd( 4f)     0.00043       2.09708
   266    C    6  f(C1)  Ryd( 5f)     0.00051       3.57563
   267    C    6  f(S1)  Ryd( 4f)     0.00081       1.98881
   268    C    6  f(S1)  Ryd( 5f)     0.00029       3.62102
   269    C    6  f(C2)  Ryd( 4f)     0.00052       1.66414
   270    C    6  f(C2)  Ryd( 5f)     0.00003       3.31639
   271    C    6  f(S2)  Ryd( 4f)     0.00073       1.53041
   272    C    6  f(S2)  Ryd( 5f)     0.00006       3.41124
   273    C    6  f(C3)  Ryd( 4f)     0.00120       3.04246
   274    C    6  f(C3)  Ryd( 5f)     0.00008       4.62338
   275    C    6  f(S3)  Ryd( 4f)     0.00174       2.70645
   276    C    6  f(S3)  Ryd( 5f)     0.00032       4.16935
 
   277    C    7  S      Cor( 1S)     1.99908     -10.53887
   278    C    7  S      Val( 2S)     0.77904      -0.10342
   279    C    7  S      Ryd( 4S)     0.00374       2.01648
   280    C    7  S      Ryd( 3S)     0.00011       1.83690
   281    C    7  S      Ryd( 5S)     0.00007       2.69373
   282    C    7  px     Val( 2p)     0.91630      -0.04980
   283    C    7  px     Ryd( 5p)     0.00592       1.62024
   284    C    7  px     Ryd( 3p)     0.00024       1.18987
   285    C    7  px     Ryd( 4p)     0.00002       1.21775
   286    C    7  py     Val( 2p)     0.72622      -0.02697
   287    C    7  py     Ryd( 4p)     0.01292       1.60072
   288    C    7  py     Ryd( 3p)     0.00007       1.30677
   289    C    7  py     Ryd( 5p)     0.00007       1.74206
   290    C    7  pz     Val( 2p)     0.75608      -0.12783
   291    C    7  pz     Ryd( 5p)     0.00058       1.13639
   292    C    7  pz     Ryd( 3p)     0.00009       0.74278
   293    C    7  pz     Ryd( 4p)     0.00003       0.93882
   294    C    7  dxy    Ryd( 3d)     0.00061       3.05233
   295    C    7  dxy    Ryd( 5d)     0.00037       3.31498
   296    C    7  dxy    Ryd( 4d)     0.00005       3.30342
   297    C    7  dxz    Ryd( 3d)     0.00131       2.15699
   298    C    7  dxz    Ryd( 5d)     0.00005       2.32490
   299    C    7  dxz    Ryd( 4d)     0.00004       2.25031
   300    C    7  dyz    Ryd( 3d)     0.00198       2.22000
   301    C    7  dyz    Ryd( 4d)     0.00004       2.39174
   302    C    7  dyz    Ryd( 5d)     0.00004       2.42826
   303    C    7  dx2y2  Ryd( 4d)     0.00233       3.01137
   304    C    7  dx2y2  Ryd( 3d)     0.00018       2.76566
   305    C    7  dx2y2  Ryd( 5d)     0.00007       3.68179
   306    C    7  dz2    Ryd( 3d)     0.00048       2.88034
   307    C    7  dz2    Ryd( 4d)     0.00055       3.30670
   308    C    7  dz2    Ryd( 5d)     0.00010       3.61175
   309    C    7  f(0)   Ryd( 5f)     0.00010       3.52989
   310    C    7  f(0)   Ryd( 4f)     0.00002       2.43355
   311    C    7  f(C1)  Ryd( 5f)     0.00016       3.75797
   312    C    7  f(C1)  Ryd( 4f)     0.00002       3.26225
   313    C    7  f(S1)  Ryd( 5f)     0.00006       3.66072
   314    C    7  f(S1)  Ryd( 4f)     0.00004       3.33786
   315    C    7  f(C2)  Ryd( 5f)     0.00000       3.42632
   316    C    7  f(C2)  Ryd( 4f)     0.00006       2.58382
   317    C    7  f(S2)  Ryd( 5f)     0.00003       3.64824
   318    C    7  f(S2)  Ryd( 4f)     0.00000       2.87224
   319    C    7  f(C3)  Ryd( 4f)     0.00006       4.66158
   320    C    7  f(C3)  Ryd( 5f)     0.00003       8.45724
   321    C    7  f(S3)  Ryd( 5f)     0.00007       4.59076
   322    C    7  f(S3)  Ryd( 4f)     0.00004       3.97522
 
   323    O    8  S      Cor( 1S)     1.99979     -19.32705
   324    O    8  S      Val( 2S)     1.70604      -1.00203
   325    O    8  S      Ryd( 4S)     0.00055       2.73758
   326    O    8  S      Ryd( 3S)     0.00018       1.86851
   327    O    8  S      Ryd( 5S)     0.00001       8.58888
   328    O    8  px     Val( 2p)     1.77009      -0.34052
   329    O    8  px     Ryd( 4p)     0.00112       1.40939
   330    O    8  px     Ryd( 3p)     0.00012       0.95290
   331    O    8  px     Ryd( 5p)     0.00004       4.60904
   332    O    8  py     Val( 2p)     1.64797      -0.33904
   333    O    8  py     Ryd( 4p)     0.00121       1.43861
   334    O    8  py     Ryd( 3p)     0.00009       0.83588
   335    O    8  py     Ryd( 5p)     0.00004       5.08659
   336    O    8  pz     Val( 2p)     1.45669      -0.29118
   337    O    8  pz     Ryd( 4p)     0.00058       1.04785
   338    O    8  pz     Ryd( 3p)     0.00001       0.63589
   339    O    8  pz     Ryd( 5p)     0.00001       4.04267
   340    O    8  dxy    Ryd( 3d)     0.00761       2.07816
   341    O    8  dxy    Ryd( 4d)     0.00009       3.06767
   342    O    8  dxy    Ryd( 5d)     0.00002       6.76287
   343    O    8  dxz    Ryd( 3d)     0.00200       1.47933
   344    O    8  dxz    Ryd( 4d)     0.00000       1.53205
   345    O    8  dxz    Ryd( 5d)     0.00001       6.57680
   346    O    8  dyz    Ryd( 4d)     0.00464       1.55636
   347    O    8  dyz    Ryd( 3d)     0.00003       1.54411
   348    O    8  dyz    Ryd( 5d)     0.00002       6.55281
   349    O    8  dx2y2  Ryd( 3d)     0.00569       1.84898
   350    O    8  dx2y2  Ryd( 4d)     0.00007       2.02963
   351    O    8  dx2y2  Ryd( 5d)     0.00005       6.68651
   352    O    8  dz2    Ryd( 3d)     0.00278       1.66524
   353    O    8  dz2    Ryd( 4d)     0.00008       2.40334
   354    O    8  dz2    Ryd( 5d)     0.00000       6.65433
   355    O    8  f(0)   Ryd( 4f)     0.00011       3.22478
   356    O    8  f(0)   Ryd( 5f)     0.00000       5.41451
   357    O    8  f(C1)  Ryd( 4f)     0.00008       3.41279
   358    O    8  f(C1)  Ryd( 5f)     0.00002       5.53510
   359    O    8  f(S1)  Ryd( 4f)     0.00010       3.68719
   360    O    8  f(S1)  Ryd( 5f)     0.00001       5.70784
   361    O    8  f(C2)  Ryd( 4f)     0.00006       3.17420
   362    O    8  f(C2)  Ryd( 5f)     0.00001       5.63102
   363    O    8  f(S2)  Ryd( 4f)     0.00023       3.27716
   364    O    8  f(S2)  Ryd( 5f)     0.00001       5.53140
   365    O    8  f(C3)  Ryd( 4f)     0.00036       4.13980
   366    O    8  f(C3)  Ryd( 5f)     0.00001       6.01990
   367    O    8  f(S3)  Ryd( 4f)     0.00038       3.70597
   368    O    8  f(S3)  Ryd( 5f)     0.00002       5.87833
 
   369    O    9  S      Cor( 1S)     1.99978     -19.45931
   370    O    9  S      Val( 2S)     1.67675      -1.03568
   371    O    9  S      Ryd( 3S)     0.00039       1.51336
   372    O    9  S      Ryd( 4S)     0.00008       2.81939
   373    O    9  S      Ryd( 5S)     0.00001       9.20382
   374    O    9  px     Val( 2p)     1.47202      -0.36088
   375    O    9  px     Ryd( 3p)     0.00063       1.20752
   376    O    9  px     Ryd( 4p)     0.00011       1.24617
   377    O    9  px     Ryd( 5p)     0.00003       4.83634
   378    O    9  py     Val( 2p)     1.68878      -0.40317
   379    O    9  py     Ryd( 4p)     0.00081       1.07982
   380    O    9  py     Ryd( 3p)     0.00008       0.96785
   381    O    9  py     Ryd( 5p)     0.00006       4.61752
   382    O    9  pz     Val( 2p)     1.84666      -0.41395
   383    O    9  pz     Ryd( 4p)     0.00105       0.88636
   384    O    9  pz     Ryd( 3p)     0.00001       0.73394
   385    O    9  pz     Ryd( 5p)     0.00000       3.91673
   386    O    9  dxy    Ryd( 3d)     0.00568       1.99551
   387    O    9  dxy    Ryd( 4d)     0.00013       2.42843
   388    O    9  dxy    Ryd( 5d)     0.00003       6.73990
   389    O    9  dxz    Ryd( 3d)     0.00035       1.21229
   390    O    9  dxz    Ryd( 4d)     0.00007       1.99039
   391    O    9  dxz    Ryd( 5d)     0.00001       6.36110
   392    O    9  dyz    Ryd( 3d)     0.00441       1.34626
   393    O    9  dyz    Ryd( 4d)     0.00002       1.74232
   394    O    9  dyz    Ryd( 5d)     0.00003       6.38644
   395    O    9  dx2y2  Ryd( 3d)     0.00403       1.77954
   396    O    9  dx2y2  Ryd( 4d)     0.00007       2.19943
   397    O    9  dx2y2  Ryd( 5d)     0.00006       6.76168
   398    O    9  dz2    Ryd( 3d)     0.00301       1.54314
   399    O    9  dz2    Ryd( 4d)     0.00012       2.41438
   400    O    9  dz2    Ryd( 5d)     0.00001       6.61330
   401    O    9  f(0)   Ryd( 4f)     0.00049       2.81655
   402    O    9  f(0)   Ryd( 5f)     0.00001       5.88729
   403    O    9  f(C1)  Ryd( 4f)     0.00022       3.43047
   404    O    9  f(C1)  Ryd( 5f)     0.00001       6.18356
   405    O    9  f(S1)  Ryd( 4f)     0.00015       3.37911
   406    O    9  f(S1)  Ryd( 5f)     0.00001       6.10377
   407    O    9  f(C2)  Ryd( 4f)     0.00005       2.87105
   408    O    9  f(C2)  Ryd( 5f)     0.00001       6.05178
   409    O    9  f(S2)  Ryd( 4f)     0.00005       2.89715
   410    O    9  f(S2)  Ryd( 5f)     0.00001       5.93371
   411    O    9  f(C3)  Ryd( 4f)     0.00010       4.45880
   412    O    9  f(C3)  Ryd( 5f)     0.00005       6.51180
   413    O    9  f(S3)  Ryd( 4f)     0.00008       3.82742
   414    O    9  f(S3)  Ryd( 5f)     0.00002       6.41893
 
   415   Cl   10  S      Cor( 1S)     2.00000    -101.24728
   416   Cl   10  S      Cor( 2S)     1.99975     -10.98013
   417   Cl   10  S      Val( 3S)     1.82431      -1.06561
   418   Cl   10  S      Ryd( 5S)     0.00232       1.71194
   419   Cl   10  S      Ryd( 4S)     0.00005       1.38947
   420   Cl   10  S      Ryd( 6S)     0.00000       5.62993
   421   Cl   10  px     Cor( 2p)     1.99992      -7.54641
   422   Cl   10  px     Val( 3p)     1.24883      -0.30098
   423   Cl   10  px     Ryd( 4p)     0.00206       0.66612
   424   Cl   10  px     Ryd( 5p)     0.00007       1.10480
   425   Cl   10  px     Ryd( 6p)     0.00002       2.30534
   426   Cl   10  py     Cor( 2p)     1.99999      -7.54291
   427   Cl   10  py     Val( 3p)     1.97069      -0.39813
   428   Cl   10  py     Ryd( 4p)     0.00152       0.69132
   429   Cl   10  py     Ryd( 5p)     0.00009       1.50453
   430   Cl   10  py     Ryd( 6p)     0.00003       2.07499
   431   Cl   10  pz     Cor( 2p)     1.99999      -7.54323
   432   Cl   10  pz     Val( 3p)     1.92143      -0.39487
   433   Cl   10  pz     Ryd( 4p)     0.00206       0.63088
   434   Cl   10  pz     Ryd( 5p)     0.00002       1.05769
   435   Cl   10  pz     Ryd( 6p)     0.00001       1.88225
   436   Cl   10  dxy    Ryd( 4d)     0.00052       2.12935
   437   Cl   10  dxy    Ryd( 3d)     0.00021       1.14960
   438   Cl   10  dxy    Ryd( 5d)     0.00002       2.61474
   439   Cl   10  dxz    Ryd( 4d)     0.00146       1.50183
   440   Cl   10  dxz    Ryd( 3d)     0.00022       1.13282
   441   Cl   10  dxz    Ryd( 5d)     0.00001       2.36791
   442   Cl   10  dyz    Ryd( 4d)     0.00001       1.19932
   443   Cl   10  dyz    Ryd( 3d)     0.00001       0.98753
   444   Cl   10  dyz    Ryd( 5d)     0.00001       1.91971
   445   Cl   10  dx2y2  Ryd( 4d)     0.00305       1.94011
   446   Cl   10  dx2y2  Ryd( 3d)     0.00003       1.35672
   447   Cl   10  dx2y2  Ryd( 5d)     0.00002       2.44019
   448   Cl   10  dz2    Ryd( 3d)     0.00105       1.44419
   449   Cl   10  dz2    Ryd( 4d)     0.00003       1.44749
   450   Cl   10  dz2    Ryd( 5d)     0.00001       2.30859
   451   Cl   10  f(0)   Ryd( 4f)     0.00004       1.23696
   452   Cl   10  f(0)   Ryd( 5f)     0.00003       2.83331
   453   Cl   10  f(C1)  Ryd( 4f)     0.00002       1.71676
   454   Cl   10  f(C1)  Ryd( 5f)     0.00007       2.95072
   455   Cl   10  f(S1)  Ryd( 4f)     0.00002       1.33454
   456   Cl   10  f(S1)  Ryd( 5f)     0.00000       2.83521
   457   Cl   10  f(C2)  Ryd( 4f)     0.00008       1.28008
   458   Cl   10  f(C2)  Ryd( 5f)     0.00005       2.84644
   459   Cl   10  f(S2)  Ryd( 4f)     0.00000       1.40369
   460   Cl   10  f(S2)  Ryd( 5f)     0.00000       2.83943
   461   Cl   10  f(C3)  Ryd( 4f)     0.00006       1.73313
   462   Cl   10  f(C3)  Ryd( 5f)     0.00008       3.02734
   463   Cl   10  f(S3)  Ryd( 4f)     0.00012       1.39477
   464   Cl   10  f(S3)  Ryd( 5f)     0.00007       3.00270
 
   465    H   11  S      Val( 1S)     0.75538       0.04533
   466    H   11  S      Ryd( 4S)     0.00043       1.98255
   467    H   11  S      Ryd( 2S)     0.00014       0.76383
   468    H   11  S      Ryd( 3S)     0.00004       1.74513
   469    H   11  px     Ryd( 2p)     0.00049       1.03607
   470    H   11  px     Ryd( 4p)     0.00010       4.21063
   471    H   11  px     Ryd( 3p)     0.00009       3.45571
   472    H   11  py     Ryd( 2p)     0.00080       0.95389
   473    H   11  py     Ryd( 4p)     0.00017       4.34903
   474    H   11  py     Ryd( 3p)     0.00006       4.15024
   475    H   11  pz     Ryd( 2p)     0.00014       0.66435
   476    H   11  pz     Ryd( 4p)     0.00002       3.92027
   477    H   11  pz     Ryd( 3p)     0.00003       2.08715
   478    H   11  dxy    Ryd( 3d)     0.00008       2.09035
   479    H   11  dxy    Ryd( 4d)     0.00004       4.61160
   480    H   11  dxz    Ryd( 3d)     0.00003       1.43652
   481    H   11  dxz    Ryd( 4d)     0.00001       3.90117
   482    H   11  dyz    Ryd( 3d)     0.00003       1.53798
   483    H   11  dyz    Ryd( 4d)     0.00001       4.10305
   484    H   11  dx2y2  Ryd( 3d)     0.00005       2.04314
   485    H   11  dx2y2  Ryd( 4d)     0.00003       4.67120
   486    H   11  dz2    Ryd( 3d)     0.00003       2.16791
   487    H   11  dz2    Ryd( 4d)     0.00002       4.30073
 
   488    H   12  S      Val( 1S)     0.76736       0.02650
   489    H   12  S      Ryd( 4S)     0.00038       2.03907
   490    H   12  S      Ryd( 2S)     0.00012       0.65647
   491    H   12  S      Ryd( 3S)     0.00002       1.56929
   492    H   12  px     Ryd( 2p)     0.00079       1.00693
   493    H   12  px     Ryd( 4p)     0.00009       4.11807
   494    H   12  px     Ryd( 3p)     0.00005       3.31759
   495    H   12  py     Ryd( 2p)     0.00052       1.20966
   496    H   12  py     Ryd( 3p)     0.00015       4.09206
   497    H   12  py     Ryd( 4p)     0.00003       4.17362
   498    H   12  pz     Ryd( 2p)     0.00026       0.81702
   499    H   12  pz     Ryd( 4p)     0.00002       3.75176
   500    H   12  pz     Ryd( 3p)     0.00003       1.97674
   501    H   12  dxy    Ryd( 3d)     0.00011       2.06074
   502    H   12  dxy    Ryd( 4d)     0.00002       4.57030
   503    H   12  dxz    Ryd( 3d)     0.00002       1.49369
   504    H   12  dxz    Ryd( 4d)     0.00001       3.81338
   505    H   12  dyz    Ryd( 3d)     0.00001       1.61544
   506    H   12  dyz    Ryd( 4d)     0.00001       3.99255
   507    H   12  dx2y2  Ryd( 3d)     0.00004       1.99580
   508    H   12  dx2y2  Ryd( 4d)     0.00003       4.68887
   509    H   12  dz2    Ryd( 3d)     0.00002       1.99131
   510    H   12  dz2    Ryd( 4d)     0.00001       4.26051
 
   511    H   13  S      Val( 1S)     0.76873       0.02547
   512    H   13  S      Ryd( 4S)     0.00040       2.03408
   513    H   13  S      Ryd( 2S)     0.00013       0.65411
   514    H   13  S      Ryd( 3S)     0.00002       1.56083
   515    H   13  px     Ryd( 2p)     0.00077       0.99810
   516    H   13  px     Ryd( 4p)     0.00008       4.13690
   517    H   13  px     Ryd( 3p)     0.00005       3.21602
   518    H   13  py     Ryd( 2p)     0.00058       1.21362
   519    H   13  py     Ryd( 3p)     0.00015       4.12896
   520    H   13  py     Ryd( 4p)     0.00003       4.21941
   521    H   13  pz     Ryd( 2p)     0.00026       0.81500
   522    H   13  pz     Ryd( 4p)     0.00002       3.77066
   523    H   13  pz     Ryd( 3p)     0.00004       1.95584
   524    H   13  dxy    Ryd( 3d)     0.00010       2.05684
   525    H   13  dxy    Ryd( 4d)     0.00002       4.56374
   526    H   13  dxz    Ryd( 3d)     0.00002       1.48979
   527    H   13  dxz    Ryd( 4d)     0.00001       3.78381
   528    H   13  dyz    Ryd( 3d)     0.00001       1.63634
   529    H   13  dyz    Ryd( 4d)     0.00002       3.99702
   530    H   13  dx2y2  Ryd( 3d)     0.00005       2.02350
   531    H   13  dx2y2  Ryd( 4d)     0.00003       4.67877
   532    H   13  dz2    Ryd( 3d)     0.00003       1.98940
   533    H   13  dz2    Ryd( 4d)     0.00001       4.25478
 
   534    H   14  S      Val( 1S)     0.76328       0.03633
   535    H   14  S      Ryd( 4S)     0.00043       1.95400
   536    H   14  S      Ryd( 2S)     0.00014       0.78844
   537    H   14  S      Ryd( 3S)     0.00004       1.73081
   538    H   14  px     Ryd( 2p)     0.00058       1.03052
   539    H   14  px     Ryd( 4p)     0.00011       4.20075
   540    H   14  px     Ryd( 3p)     0.00007       3.47780
   541    H   14  py     Ryd( 2p)     0.00073       0.93520
   542    H   14  py     Ryd( 4p)     0.00018       4.32678
   543    H   14  py     Ryd( 3p)     0.00005       4.04602
   544    H   14  pz     Ryd( 2p)     0.00021       0.63341
   545    H   14  pz     Ryd( 4p)     0.00003       3.93060
   546    H   14  pz     Ryd( 3p)     0.00003       2.07050
   547    H   14  dxy    Ryd( 3d)     0.00010       2.15163
   548    H   14  dxy    Ryd( 4d)     0.00004       4.59937
   549    H   14  dxz    Ryd( 3d)     0.00003       1.45344
   550    H   14  dxz    Ryd( 4d)     0.00001       3.92320
   551    H   14  dyz    Ryd( 3d)     0.00003       1.51964
   552    H   14  dyz    Ryd( 4d)     0.00001       4.09578
   553    H   14  dx2y2  Ryd( 3d)     0.00003       2.04838
   554    H   14  dx2y2  Ryd( 4d)     0.00003       4.66788
   555    H   14  dz2    Ryd( 3d)     0.00004       2.24184
   556    H   14  dz2    Ryd( 4d)     0.00002       4.28269
 
   557    H   15  S      Val( 1S)     0.49011       0.13335
   558    H   15  S      Ryd( 4S)     0.00121       1.82001
   559    H   15  S      Ryd( 3S)     0.00013       1.72588
   560    H   15  S      Ryd( 2S)     0.00011       0.50694
   561    H   15  px     Ryd( 2p)     0.00022       2.95776
   562    H   15  px     Ryd( 4p)     0.00039       3.38648
   563    H   15  px     Ryd( 3p)     0.00003       3.15773
   564    H   15  py     Ryd( 2p)     0.00023       2.10304
   565    H   15  py     Ryd( 3p)     0.00003       2.82486
   566    H   15  py     Ryd( 4p)     0.00002       3.02004
   567    H   15  pz     Ryd( 2p)     0.00050       1.73950
   568    H   15  pz     Ryd( 3p)     0.00004       2.54817
   569    H   15  pz     Ryd( 4p)     0.00001       2.78904
   570    H   15  dxy    Ryd( 3d)     0.00003       1.39893
   571    H   15  dxy    Ryd( 4d)     0.00001       4.42761
   572    H   15  dxz    Ryd( 3d)     0.00010       1.11703
   573    H   15  dxz    Ryd( 4d)     0.00000       4.25224
   574    H   15  dyz    Ryd( 3d)     0.00003       1.15582
   575    H   15  dyz    Ryd( 4d)     0.00000       3.82044
   576    H   15  dx2y2  Ryd( 3d)     0.00007       1.75206
   577    H   15  dx2y2  Ryd( 4d)     0.00001       4.62958
   578    H   15  dz2    Ryd( 3d)     0.00012       1.63436
   579    H   15  dz2    Ryd( 4d)     0.00001       4.06888

 WARNING:  1 low occupancy (<1.9990e) core orbital  found on  C    2
           1 low occupancy (<1.9990e) core orbital  found on  C    3
           1 low occupancy (<1.9990e) core orbital  found on  C    4
           1 low occupancy (<1.9990e) core orbital  found on  C    6

 WARNING:  Population inversion found on atom  C    1
           Population inversion found on atom  C    2
           Population inversion found on atom  C    3
           Population inversion found on atom  C    4
           Population inversion found on atom  C    5
           Population inversion found on atom  C    6
           Population inversion found on atom  C    7
           Population inversion found on atom  O    8
           Population inversion found on atom  O    9
           Population inversion found on atom Cl   10
           Population inversion found on atom  H   11
           Population inversion found on atom  H   12
           Population inversion found on atom  H   13
           Population inversion found on atom  H   14
           Population inversion found on atom  H   15


 Summary of Natural Population Analysis:                  
                                                          
                                       Natural Population 
                Natural  -----------------------------------------------
    Atom  No    Charge         Core      Valence    Rydberg      Total
 -----------------------------------------------------------------------
      C    1   -0.10658      1.99908     4.08680    0.02069     6.10658
      C    2   -0.23750      1.99896     4.21543    0.02311     6.23750
      C    3   -0.00186      1.99839     3.97245    0.03101     6.00186
      C    4   -0.23921      1.99897     4.21682    0.02342     6.23921
      C    5   -0.12025      1.99909     4.10101    0.02015     6.12025
      C    6   -0.22961      1.99884     4.20495    0.02582     6.22961
      C    7    0.79053      1.99908     3.17764    0.03276     5.20947
      O    8   -0.60905      1.99979     6.58079    0.02847     8.60905
      O    9   -0.70653      1.99978     6.68422    0.02254     8.70653
     Cl   10    0.01954      9.99965     6.96525    0.01556    16.98046
      H   11    0.24178      0.00000     0.75538    0.00284     0.75822
      H   12    0.22988      0.00000     0.76736    0.00275     0.77012
      H   13    0.22847      0.00000     0.76873    0.00281     0.77153
      H   14    0.23379      0.00000     0.76328    0.00292     0.76621
      H   15    0.50659      0.00000     0.49011    0.00330     0.49341
 =======================================================================
   * Total *    0.00000     27.99164    51.75022    0.25814    80.00000

                                 Natural Population      
 --------------------------------------------------------
   Core                      27.99164 ( 99.9701% of  28)
   Valence                   51.75022 ( 99.5197% of  52)
   Natural Minimal Basis     79.74186 ( 99.6773% of  80)
   Natural Rydberg Basis      0.25814 (  0.3227% of  80)
 --------------------------------------------------------

    Atom  No          Natural Electron Configuration
 ----------------------------------------------------------------------------
      C    1      [core]2S( 0.94)2p( 3.15)4p( 0.01)
      C    2      [core]2S( 0.95)2p( 3.27)5p( 0.01)
      C    3      [core]2S( 0.92)2p( 3.05)4p( 0.01)4f( 0.01)
      C    4      [core]2S( 0.94)2p( 3.27)4p( 0.01)
      C    5      [core]2S( 0.94)2p( 3.16)3d( 0.01)4p( 0.01)
      C    6      [core]2S( 0.89)2p( 3.32)5p( 0.01)4f( 0.01)
      C    7      [core]2S( 0.78)2p( 2.40)4p( 0.01)5p( 0.01)
      O    8      [core]2S( 1.71)2p( 4.87)3d( 0.02)
      O    9      [core]2S( 1.68)2p( 5.01)3d( 0.02)
     Cl   10      [core]3S( 1.82)3p( 5.14)4p( 0.01)4d( 0.01)
      H   11            1S( 0.76)
      H   12            1S( 0.77)
      H   13            1S( 0.77)
      H   14            1S( 0.76)
      H   15            1S( 0.49)


 NATURAL BOND ORBITAL ANALYSIS:

                       Occupancies       Lewis Structure    Low   High
           Occ.    -------------------  -----------------   occ   occ
  Cycle   Thresh.   Lewis   Non-Lewis     CR  BD  3C  LP    (L)   (NL)   Dev
 =============================================================================
   1(1)    1.90    75.96380   4.03620     14  17   0   9     8      6    0.46
   2(2)    1.90    75.96380   4.03620     14  17   0   9     8      6    0.46
   3(1)    1.80    76.32442   3.67558     14  16   0  10     3      4    0.46
   4(2)    1.80    76.32442   3.67558     14  16   0  10     3      4    0.46
   5(1)    1.70    76.32442   3.67558     14  16   0  10     3      4    0.46
   6(2)    1.70    76.32442   3.67558     14  16   0  10     3      4    0.46
   7(1)    1.60    78.16555   1.83445     14  19   0   7     0      4    0.44
   8(2)    1.60    78.13491   1.86509     14  19   0   7     0      4    0.46
   9(3)    1.60    77.59583   2.40417     14  18   0   8     1      4    0.40
  10(4)    1.60    78.16555   1.83445     14  19   0   7     0      4    0.44
  11(5)    1.60    77.59583   2.40417     14  18   0   8     1      4    0.40
  12(6)    1.60    78.16555   1.83445     14  19   0   7     0      4    0.44
  13(7)    1.60    77.59583   2.40417     14  18   0   8     1      4    0.40
  14(8)    1.60    78.16555   1.83445     14  19   0   7     0      4    0.44
  15(9)    1.60    77.59583   2.40417     14  18   0   8     1      4    0.40
  16(1)    1.50    77.67795   2.32205     14  18   0   8     0      5    0.73
  17(2)    1.50    77.67795   2.32205     14  18   0   8     0      5    0.73
  18(1)    1.60    78.16555   1.83445     14  19   0   7     0      4    0.44
 -----------------------------------------------------------------------------

 Structure accepted: RESONANCE keyword permits strongly delocalized structure

 WARNING:  1 low occupancy (<1.9990e) core orbital  found on  C    2
           1 low occupancy (<1.9990e) core orbital  found on  C    3
           1 low occupancy (<1.9990e) core orbital  found on  C    4
           1 low occupancy (<1.9990e) core orbital  found on  C    6

 --------------------------------------------------------
   Core                     27.99167 ( 99.970% of  28)
   Valence Lewis            50.17388 ( 96.488% of  52)
  ==================       ============================
   Total Lewis              78.16555 ( 97.707% of  80)
  -----------------------------------------------------
   Valence non-Lewis         1.68992 (  2.112% of  80)
   Rydberg non-Lewis         0.14453 (  0.181% of  80)
  ==================       ============================
   Total non-Lewis           1.83445 (  2.293% of  80)
 --------------------------------------------------------


       (Occupancy)   Bond orbital/ Coefficients/ Hybrids
 ---------------------------------------------------------------------------------
     1. (1.97051) BD ( 1) C   1 - C   2  
                ( 49.47%)   0.7033* C   1 s( 36.50%)p 1.73( 63.32%)d 0.00(  0.12%)
                                                  f 0.00(  0.05%)
                                            0.0001  0.6040 -0.0150  0.0001  0.0013
                                            0.7950 -0.0160 -0.0053  0.0025 -0.0053
                                           -0.0299  0.0010  0.0026  0.0000  0.0000
                                            0.0000  0.0000 -0.0059 -0.0020 -0.0033
                                            0.0000  0.0000  0.0000  0.0000  0.0000
                                            0.0000  0.0268  0.0028 -0.0045 -0.0209
                                           -0.0018 -0.0016  0.0000  0.0000 -0.0126
                                           -0.0114  0.0029 -0.0011  0.0000  0.0000
                                            0.0000  0.0000  0.0078  0.0087 -0.0063
                                            0.0052
[...]
 ! D27   D(5,6,7,8)            179.9968         -DE/DX =    0.0                 !
 ! D28   D(5,6,7,9)              0.003          -DE/DX =    0.0                 !
 ! D29   D(6,7,9,15)           179.9969         -DE/DX =    0.0                 !
 ! D30   D(8,7,9,15)             0.003          -DE/DX =    0.0                 !
 --------------------------------------------------------------------------------
 GradGradGradGradGradGradGradGradGradGradGradGradGradGradGradGradGradGrad


 ----------------------------------------------------------------------

 Electric dipole moment (input orientation):
 (Debye = 10**-18 statcoulomb cm , SI units = C m)
                  (au)            (Debye)         (10**-30 SI)
   Tot        0.554149D+00      0.140851D+01      0.469827D+01
   x          0.506042D+00      0.128623D+01      0.429040D+01
   y          0.150287D+00      0.381992D+00      0.127419D+01
   z         -0.168572D+00     -0.428466D+00     -0.142921D+01

 Dipole polarizability, Alpha (input orientation).
 (esu units = cm**3 , SI units = C**2 m**2 J**-1)
 Alpha(0;0):
               (au)            (10**-24 esu)      (10**-40 SI)
   iso        0.104003D+03      0.154117D+02      0.171478D+02
   aniso      0.791328D+02      0.117263D+02      0.130472D+02
   xx         0.100452D+03      0.148855D+02      0.165623D+02
   yx        -0.118865D+02     -0.176140D+01     -0.195983D+01
   yy         0.147995D+03      0.219306D+02      0.244011D+02
   zx        -0.111156D+02     -0.164716D+01     -0.183272D+01
   zy        -0.555255D+01     -0.822803D+00     -0.915491D+00
   zz         0.635627D+02      0.941902D+01      0.104801D+02

 ----------------------------------------------------------------------

 Dipole orientation:
     6         -0.16890016         -0.10179958         -2.51159957
     6          0.60296064          2.38288219         -2.75730812
     6          1.04170882          3.79546052         -0.59183422
     6          0.72396136          2.77281486          1.79971024
     6         -0.04941161          0.28326358          2.02576467
     6         -0.49697667         -1.15770579         -0.12677788
     6         -1.32794842         -3.83271475          0.02273328
     8         -1.74025486         -5.15979490         -1.77188578
     8         -1.58579798         -4.66214603          2.41457676
    17          2.00984812          6.91198700         -0.88336536
     1         -0.52777210         -1.25719875         -4.15766396
     1          0.86675241          3.23188931         -4.59430898
     1          1.08028545          3.92000035          3.44958543
     1         -0.30716989         -0.54632146          3.87271139
     1         -2.12669829         -6.40310986          2.31584947

 Electric dipole moment (dipole orientation):
 (Debye = 10**-18 statcoulomb cm , SI units = C m)
                  (au)            (Debye)         (10**-30 SI)
   Tot        0.554149D+00      0.140851D+01      0.469827D+01
   x          0.000000D+00      0.000000D+00      0.000000D+00
   y          0.000000D+00      0.000000D+00      0.000000D+00
   z          0.554149D+00      0.140851D+01      0.469827D+01

 Dipole polarizability, Alpha (dipole orientation).
 (esu units = cm**3 , SI units = C**2 m**2 J**-1)
 Alpha(0;0):
               (au)            (10**-24 esu)      (10**-40 SI)
   iso        0.104003D+03      0.154117D+02      0.171478D+02
   aniso      0.791328D+02      0.117263D+02      0.130472D+02
   xx         0.676370D+02      0.100228D+02      0.111518D+02
   yx         0.257862D+02      0.382112D+01      0.425157D+01
   yy         0.142633D+03      0.211361D+02      0.235170D+02
   zx        -0.104815D+01     -0.155320D+00     -0.172817D+00
   zy        -0.337008D+01     -0.499395D+00     -0.555652D+00
   zz         0.101739D+03      0.150762D+02      0.167746D+02

 ----------------------------------------------------------------------
 Unable to Open any file for archive entry.
 1\1\GINC-AE34\Freq\RM062X\Aug-CC-pVTZ\C7H5Cl1O2\DHUANG\02-Apr-2025\0\\
 #N Geom=AllCheck Guess=TCheck SCRF=Check GenChk RM062X/Aug-CC-pVTZ Fre
 q\\p-Cl\\0,1\C,-1.2561594121,-0.2926471105,0.3372960339\C,-0.977930024
 4,-1.6461580579,0.3932531813\C,0.2941773201,-2.0848176434,0.0539596173
 \C,1.2864673137,-1.1990245847,-0.3378027483\C,0.9979624351,0.154249170
 8,-0.3906279619\C,-0.2724313682,0.6098271968,-0.0536021499\C,-0.627551
 9841,2.0505091235,-0.0953238172\O,-1.7068110689,2.4970426329,0.1847787
 17\O,0.3957277903,2.8338476266,-0.4859184764\Cl,0.6512096329,-3.780129
 8119,0.1214633094\H,-2.2361831213,0.0841105452,0.5946677845\H,-1.72998
 77077,-2.3602404798,0.6945940103\H,2.2670209952,-1.5708779415,-0.59584
 03775\H,1.7579293153,0.8594545789,-0.693441574\H,0.0698598841,3.743354
 7552,-0.4815555487\\Version=ES64L-G16RevC.01\State=1-A\HF=-880.4297576
 \RMSD=1.690e-09\RMSF=1.002e-04\ZeroPoint=0.1069045\Thermal=0.11517\ETo
 t=-880.3145876\HTot=-880.3136434\GTot=-880.3570496\Dipole=0.5060422,0.
 1502872,-0.1685717\DipoleDeriv=0.0041978,0.1136336,-0.0332733,-0.14350
 06,0.1718145,0.018685,-0.0066536,-0.0590853,-0.0588069,-0.1338911,0.23
 01597,-0.0126134,0.2342298,-0.3129119,-0.0484664,-0.0130347,-0.0472352
 ,-0.0879939,0.1893768,-0.2296526,-0.0383775,-0.2425154,1.268898,-0.059
 6692,-0.0370462,-0.0635591,0.00165,0.0107874,-0.1010439,-0.0232567,-0.
 078997,-0.4681758,0.0619257,-0.0255387,0.0685925,-0.100078,0.020742,-0
 .1816095,-0.0084583,0.0650919,0.1825734,-0.0457632,-0.0339925,0.028829
 ,-0.062091,-0.0986676,0.1144251,0.0032548,0.1236497,-0.6738923,0.02731
 88,0.0023053,0.0300981,-0.0525524,1.5549987,-0.0711863,-0.3619227,-0.1
 26122,2.2577623,-0.1610153,-0.3562343,-0.1776511,0.460021,-1.0711962,0
 .3595893,0.1749994,0.3875344,-1.069496,-0.0447324,0.1720655,-0.0362566
 ,-0.4177546,-0.7886468,-0.4655528,0.1780187,-0.4352298,-1.1252852,0.21
 09102,0.1749079,0.2201107,-0.4350428,-0.1130962,0.1641791,0.0004427,0.
 1675855,-0.8570937,0.0322971,0.0000904,0.0333261,-0.0589151,0.0427992,
 0.0076553,0.0242836,0.0245631,0.0946917,-0.0042173,0.0225329,0.0008955
 ,0.1188113,0.0562965,-0.0321909,0.0265511,-0.0381103,0.0261829,0.02258
 94,0.0271627,0.0208004,0.1227103,0.0216557,0.0345773,0.0300965,0.04019
 84,0.0553078,-0.0041131,0.0295149,-0.0024114,0.1243371,0.0522684,-0.03
 37221,0.026153,-0.0345716,0.0649311,0.0168998,0.0262416,0.0166428,0.11
 75506,0.2523755,0.0907387,0.0141021,0.0561938,0.3846931,-0.0226491,0.0
 176788,-0.0330965,0.3281543\Polar=100.4520878,-11.8865465,147.9948709,
 -11.1156197,-5.5525473,63.562695\Quadrupole=-0.031206,1.1999548,-1.168
 7488,4.9709727,-1.0070386,-1.799282\PG=C01 [X(C7H5Cl1O2)]\NImag=0\\0.6
 9092681,-0.04986233,0.69701338,-0.16034076,-0.04219684,0.19650527,-0.1
 3592387,0.00582802,0.02186906,0.66191220,0.08150279,-0.34546679,0.0047
 3306,0.03228501,0.72054982,0.01403634,0.02761821,-0.06871693,-0.163692
 34,-0.07071586,0.18848942,0.01416603,0.09976467,-0.01324611,-0.2974169
 5,0.01182283,0.06913141,0.61118559,0.03416078,-0.00604863,-0.00923760,
 0.08718983,-0.12742449,-0.01988173,0.01190842,0.53297164,-0.00645573,-
 0.02907678,0.00947232,0.06133068,0.00290992,-0.08361587,-0.14655518,-0
 .04524518,0.17963942,-0.00812717,-0.02118774,0.00377079,-0.04493162,0.
 00269506,0.01550955,-0.23599201,-0.13093771,0.06527446,0.70145723,-0.0
 2347503,-0.06981468,0.01402403,-0.05005402,0.06691863,0.00896374,-0.05
 558080,-0.18688445,0.02942799,-0.05353572,0.68135899,0.00400741,0.0133
 3225,-0.00550177,0.02096938,-0.00698808,0.00165951,0.05747473,0.052216
 73,-0.08774588,-0.16683596,-0.04073006,0.18611187,-0.05075991,-0.05165
 034,0.02268808,-0.03446820,0.03928542,0.00551952,0.06017435,-0.0063243
 9,-0.01615926,-0.13731624,0.00967373,0.02179941,0.66483135,0.00181391,
 0.06702222,-0.00680395,0.03774977,-0.04502791,-0.00704207,-0.07246037,
 -0.04965589,0.02752592,0.08605165,-0.33844821,0.00259980,0.02392341,0.
 71502931,0.01715448,0.00936418,0.00042976,0.00567833,-0.00750646,-0.00
 371099,-0.00931378,0.00752574,0.00661254,0.01389407,0.02569678,-0.0687
 7970,-0.16034612,-0.06646380,0.19816165,-0.22871036,-0.05684039,0.0550
 3621,0.05425137,-0.06027181,-0.00821986,-0.07390974,-0.01557502,0.0221
 4451,0.01279680,0.08747328,-0.01076678,-0.29431575,0.02372717,0.066985
 74,0.67260954,-0.12230907,-0.20165741,0.05101026,-0.00595786,-0.047385
 45,0.00737279,-0.01560267,0.00042570,0.00405188,0.03275504,-0.00884406
 ,-0.00825199,0.08879825,-0.14383941,-0.01866150,-0.00704897,0.65562914
 ,0.06181272,0.03121168,-0.08809545,-0.01384178,0.02379816,0.00816434,0
 .02214732,0.00404353,-0.01312975,-0.00510315,-0.02479892,0.01124175,0.
 06025068,0.00101617,-0.08301490,-0.15884155,-0.05072859,0.19822978,0.0
 1720931,-0.01461064,-0.00327010,-0.00160545,-0.00835748,0.00369483,-0.
 00546301,0.00051662,0.00133686,-0.00574661,0.00285590,0.00396323,-0.00
 086255,0.02907494,-0.00287531,-0.10050837,0.01326319,0.00376104,0.8955
 3833,-0.00694567,-0.03439926,0.00580572,-0.00593355,0.00416174,0.00216
 623,0.00020637,-0.00550382,0.00041766,0.00136654,0.00824571,-0.0004036
 5,0.01817395,-0.01051317,-0.00445104,0.02410017,-0.20408517,0.00518690
 ,-0.16252186,0.68745771,-0.00406253,0.00812373,0.00178413,0.00344398,0
 .00289886,0.00641102,0.00136892,0.00032412,-0.00131303,0.00411767,-0.0
 0085442,0.00717962,-0.00174792,-0.00774803,0.00091030,0.00263846,0.008
 46905,-0.08520891,-0.18814426,0.00050076,0.27453679,-0.00594222,-0.006
 72445,0.00255274,-0.00002711,0.00234691,-0.00048396,0.00046129,-0.0020
 4097,0.00010437,0.00038395,0.00209670,-0.00086905,0.00384082,0.0017798
 5,-0.00051117,-0.01989964,0.03084194,0.00936871,-0.61731684,0.22964905
 ,0.13857797,0.73708431,0.00284265,-0.00010382,-0.00082860,0.00118588,0
 .00048315,-0.00049395,0.00135937,0.00226750,-0.00063461,0.00164156,-0.
 00345507,-0.00032243,-0.00539974,-0.00581727,0.00252075,0.04786710,-0.
 02093606,-0.01006572,0.22168439,-0.21787277,-0.05279546,-0.25056281,0.
 20959984,0.00156192,0.00206432,-0.00048945,-0.00036389,-0.00084489,-0.
 00062701,-0.00024749,0.00039354,0.00014200,-0.00082225,-0.00045987,-0.
 00147632,0.00023228,0.00035006,0.00265342,0.00760689,-0.00491954,0.019
 85301,0.13940134,-0.05520258,-0.11681748,-0.18665981,0.05758157,0.0844
 6861,0.00030950,0.00186922,0.00014037,0.00137224,0.00013019,-0.0005709
 9,0.00026874,0.00093645,-0.00015767,0.00080135,-0.00143024,-0.00031979
 ,-0.00406827,0.00177155,0.00118741,0.00686039,-0.00583800,0.00213574,-
 0.19533997,-0.05325251,0.04468051,-0.09793909,-0.02890510,0.04161064,0
 .39024794,0.00654713,-0.00349480,-0.00147186,-0.00022245,-0.00304371,0
 .00033340,-0.00168132,0.00159379,0.00035051,-0.00063555,-0.00051422,0.
 00016826,-0.00142798,-0.00407308,0.00090162,-0.03329749,-0.03830149,0.
 01527066,-0.08024399,-0.19402597,0.03754279,-0.01796116,0.03516217,0.0
 0487216,-0.05142612,0.65652883,-0.00034414,-0.00005705,0.00152321,-0.0
 0053443,0.00022697,-0.00033317,0.00011330,-0.00044124,0.00007927,-0.00
 040205,0.00040869,-0.00066622,0.00151894,-0.00006580,0.00001280,0.0049
 7847,0.00696440,0.00969551,0.04747723,0.02938085,-0.08323336,0.0404765
 0,0.00818163,0.01667282,-0.10114649,-0.04848096,0.07378969,-0.00400762
 ,-0.00301930,0.00304700,-0.00388211,0.03427057,-0.00067608,-0.04519098
 ,0.02772490,0.00287905,0.00724500,-0.01676094,0.00124181,-0.00234839,0
 .00018803,0.00222813,0.00160696,0.00145756,-0.00085247,0.00015347,-0.0
 0122108,-0.00019701,-0.00008043,0.00040500,0.00002451,0.00033049,0.000
 53558,-0.00013368,0.04456398,0.00387777,0.00469673,-0.00113775,0.00867
 929,-0.03285397,0.00135673,0.02771304,-0.17108805,0.00661797,0.0088194
 8,-0.04338524,0.00240466,-0.00655897,0.00313218,0.00218544,0.00125514,
 -0.00520899,0.00008581,-0.00124395,0.00582334,-0.00032145,0.00170466,-
 0.00220549,-0.00027273,-0.00078451,-0.00196637,0.00044830,-0.04379030,
 0.24290981,0.00233308,0.00094799,0.00423100,0.00197272,-0.00638227,0.0
 0567608,0.00288026,0.00661437,-0.02773702,-0.00140586,0.01014050,0.004
 99016,0.00292651,0.00014509,0.00418381,-0.00083153,0.00002459,-0.00046
 417,-0.00019465,-0.00032831,-0.00082315,-0.00011001,0.00012022,0.00016
 008,0.00000298,0.00004900,0.00006585,-0.00515243,-0.01060214,0.0151936
 4,-0.29590985,0.08890159,0.06775354,0.00069801,-0.00035795,0.00131965,
 0.00205428,0.00047146,0.00174712,0.00046555,-0.00043856,-0.00044477,-0
 .00094167,-0.00347648,0.00248079,-0.01602593,0.00849778,0.00546026,-0.
 00269985,0.00143615,-0.00055595,0.00177810,0.00125687,-0.00073943,0.00
 050752,0.00000165,-0.00012098,-0.00000542,-0.00014706,-0.00004430,0.31
 077529,0.09068619,-0.09162747,-0.02222931,0.02735118,-0.00511817,-0.00
 723031,0.00085070,-0.00408947,0.00099334,-0.00051778,-0.00120275,0.000
 16149,-0.00324457,-0.00269184,0.00188828,-0.01758679,0.01231662,0.0045
 5479,-0.00279754,0.00049510,0.00037595,0.00133404,-0.00163876,-0.00025
 831,0.00136098,0.00066932,-0.00046973,0.00101538,-0.00110307,-0.000213
 81,-0.09668508,0.09243792,0.06756854,-0.02168985,-0.05962432,-0.001548
 37,0.00114935,0.00528860,0.00170796,0.00110803,0.00736183,-0.00043658,
 0.00013744,-0.00103750,0.00245674,0.00195845,0.00512631,0.00816042,-0.
 00333321,0.00281575,-0.00011766,-0.00090458,-0.00391735,-0.00074753,-0
 .00023496,0.00001338,-0.00026167,-0.00005856,0.00019331,-0.00016462,0.
 00013771,-0.00016672,-0.07561528,0.02253161,0.04817475,0.00955576,0.00
 595311,-0.00243342,-0.19856993,-0.13256826,0.06239332,-0.01570480,-0.0
 2020251,0.00788338,-0.00360731,0.00315021,0.00256659,-0.00035978,0.001
 09921,-0.00036386,0.00153488,0.00237911,0.00169028,0.00052340,0.000178
 90,-0.00006707,-0.00006794,-0.00004005,0.00004083,-0.00003680,0.000210
 82,-0.00005979,0.00077990,-0.00059833,-0.00105710,0.00013130,-0.000616
 75,-0.00129936,0.20653484,-0.02194464,-0.01425245,0.00847855,-0.135363
 80,-0.18286226,0.05596836,0.00928491,0.00848599,-0.00332918,0.00276947
 ,0.00012998,-0.00023426,0.00090230,-0.00049091,-0.00034489,0.00271096,
 -0.00444712,0.00046208,-0.00152709,0.00035262,0.00046281,0.00035994,-0
 .00020532,-0.00008204,0.00003469,-0.00077592,0.00005306,0.00037913,0.0
 0112380,-0.00053327,0.00008305,0.00106535,-0.00058836,0.14208220,0.191
 35433,0.00045416,0.00004201,0.00340491,0.06268265,0.05512295,-0.062284
 65,0.00483130,0.00558808,0.00140971,0.00260601,-0.00034943,0.00520615,
 -0.00034347,-0.00040443,-0.00104102,0.00165586,0.00056252,0.00737947,0
 .00010952,-0.00005307,0.00033514,-0.00000058,0.00003890,0.00004954,-0.
 00004154,-0.00000024,-0.00014970,-0.00115828,-0.00023766,-0.00254563,-
 0.00137177,-0.00037675,-0.00392263,-0.06942022,-0.06012265,0.05282448,
 0.00035810,-0.00080447,-0.00038024,-0.00093272,-0.00340586,0.00242652,
 -0.01604657,0.01005641,0.00486166,-0.29714182,0.08933692,0.06931678,-0
 .00022975,0.00019705,0.00111156,0.00238141,0.00080022,0.00152392,0.000
 06020,-0.00037771,0.00017178,-0.00011665,0.00011446,-0.00007130,0.0000
 3870,0.00013383,-0.00002646,0.00070450,0.00035384,-0.00114688,-0.00011
 514,0.00002844,-0.00022561,-0.00067945,0.00044980,0.00026787,0.3115654
 0,-0.00056103,-0.00116007,0.00016815,-0.00303164,-0.00243775,0.0017824
 7,-0.01949924,0.00886156,0.00533888,0.09210824,-0.09026338,-0.02237709
 ,0.02817929,-0.00512598,-0.00762743,0.00040273,-0.00530686,0.00122387,
 0.00131882,0.00095935,-0.00044655,0.00039725,-0.00086889,-0.00006256,-
 0.00022861,-0.00023767,0.00009346,-0.00062469,0.00105389,-0.00022727,0
 .00005304,0.00003544,-0.00010784,-0.00097613,0.00058857,0.00027156,-0.
 09697076,0.09285396,-0.00040544,0.00024177,-0.00107703,0.00238780,0.00
 189561,0.00500728,0.00792086,-0.00359902,0.00144907,0.06902989,-0.0215
 3900,-0.05599362,-0.00178475,0.00083460,0.00396668,0.00156512,0.001103
 75,0.00710708,-0.00000385,0.00006654,0.00049326,-0.00010057,0.00002290
 ,-0.00028521,0.00001107,-0.00001617,-0.00000463,-0.00104561,-0.0005231
 7,-0.00259655,-0.00022815,-0.00010040,-0.00077204,0.00041545,-0.000159
 66,0.00025115,-0.07647544,0.02235171,0.04629969,-0.00380755,0.00333383
 ,0.00273787,-0.00015121,0.00086488,-0.00039641,0.00156195,0.00212774,0
 .00170407,0.00943798,0.00646511,-0.00202872,-0.20271077,-0.13188695,0.
 06265867,-0.01449194,-0.01977727,0.00765435,-0.00203017,-0.00269379,-0
 .00035262,0.00096704,0.00038501,-0.00014513,0.00114052,0.00042854,-0.0
 0032578,0.00013451,0.00060942,-0.00015694,-0.00069326,-0.00110356,0.00
 045176,-0.00005590,-0.00012599,-0.00025060,0.00015317,-0.00058388,-0.0
 0128930,0.21005947,0.00315240,0.00024367,-0.00031745,0.00095287,-0.000
 67395,-0.00033909,0.00175258,-0.00365694,0.00066882,-0.02159979,-0.014
 05132,0.00849785,-0.13396894,-0.18036061,0.05497379,0.00693465,0.01077
 113,-0.00279269,0.00032680,0.00149361,-0.00067976,-0.00065778,-0.00003
 522,0.00026661,0.00122852,-0.00409245,0.00007395,-0.00049816,-0.001271
 83,0.00026410,0.00052270,0.00056937,-0.00017323,-0.00009269,-0.0000132
 7,-0.00006662,0.00010267,0.00103345,-0.00058414,0.14175402,0.19000908,
 0.00275668,-0.00037229,0.00559179,-0.00040548,-0.00031256,-0.00101105,
 0.00174281,0.00055533,0.00734062,0.00087604,0.00001088,0.00467610,0.06
 287454,0.05434411,-0.06529202,0.00488923,0.00528534,0.00202460,-0.0006
 6532,0.00023355,-0.00394153,-0.00003722,-0.00004866,0.00063520,-0.0004
 0854,0.00031586,0.00030093,-0.00004229,-0.00007086,-0.00015572,0.00028
 344,0.00031857,0.00030421,-0.00025404,-0.00005655,-0.00084502,-0.00136
 034,-0.00037650,-0.00385973,-0.07005736,-0.05974895,0.05428387,0.00066
 305,-0.00095079,0.00007497,-0.00032466,-0.00024231,0.00000851,-0.00014
 818,-0.00001202,0.00006167,0.00027492,0.00022345,-0.00007428,-0.000465
 26,0.00044727,0.00003107,-0.00417963,-0.00225925,0.00283395,0.01808810
 ,-0.04216496,0.00012809,-0.00312558,0.00616542,-0.00142911,-0.10449326
 ,0.17903851,0.00852935,-0.00000385,0.00011048,-0.00001584,-0.00001895,
 -0.00007484,0.00007125,0.00002184,-0.00009491,-0.00002091,0.00000061,0
 .00001661,0.00000293,0.00048617,0.00009014,-0.00019214,0.09322467,0.00
 051417,-0.00095062,0.00000358,-0.00065852,0.00018109,0.00014109,0.0001
 6151,-0.00025445,-0.00001715,0.00020725,0.00021007,-0.00007347,-0.0003
 6142,0.00086056,-0.00000147,-0.00385072,0.00086942,0.00153225,0.002261
 88,-0.04258905,0.00414759,0.00743681,0.00562601,-0.00342575,0.13453349
 ,-0.44342844,0.00368346,-0.00006168,0.00034325,-0.00001878,-0.00011916
 ,-0.00011760,0.00006800,0.00004116,-0.00005341,-0.00001519,-0.00001486
 ,0.00001438,0.00000466,0.00020290,0.00003528,-0.00007728,-0.14029280,0
 .47925347,-0.00007671,0.00044666,0.00056255,0.00005169,0.00001523,-0.0
 0039659,0.00004367,0.00003531,0.00003477,-0.00007263,-0.00007835,0.000
 13586,0.00011484,-0.00024612,-0.00021864,0.00299882,0.00105022,0.00340
 190,-0.00447290,0.01758502,0.00360454,-0.00156039,-0.00304159,-0.00495
 258,0.01313795,-0.00977649,-0.01794632,0.00000199,-0.00007087,-0.00001
 167,0.00007584,0.00005458,0.00016242,-0.00003500,0.00002598,-0.0000719
 0,0.00000619,-0.00000485,0.00001461,-0.00020384,-0.00004318,-0.0000522
 5,-0.01000951,-0.00595155,0.01573331\\-0.00009531,-0.00010515,0.000039
 20,-0.00008543,-0.00002505,0.00002880,-0.00003455,-0.00024920,0.000036
 22,0.00009857,0.00020018,-0.00005029,0.00024992,-0.00021904,-0.0000534
 3,-0.00005209,0.00030278,-0.00002038,-0.00021524,-0.00007152,0.0000891
 5,0.00011203,-0.00001175,-0.00003903,0.00001486,0.00004209,-0.00001381
 ,-0.00000788,0.00009472,-0.00000749,0.00003037,0.00005501,-0.00001495,
 0.00003326,-0.00000705,-0.00000927,-0.00001594,-0.00001872,0.00000692,
 -0.00004762,0.00004235,0.00000991,0.00001506,-0.00002965,-0.00000155\\
 \@
 The archive entry for this job was punched.


 IT IS WELL TO REMEMBER THAT MAN IS A PART OF NATURE AND THAT HIS WORKS,
 WHATEVER THEY MAY BE, ARE NO MORE "UNNATURAL" THAN 
 THE FLIGHT OF AN EAGLE OR THE PASSAGE OF A TORNADO.

                                    -- CHARLES MCCARRY IN "THE GREAT SOUTHWEST"
 Job cpu time:       0 days 11 hours 37 minutes 53.3 seconds.
 Elapsed time:       0 days  0 hours 34 minutes 54.1 seconds.
 File lengths (MBytes):  RWF=    390 Int=      0 D2E=      0 Chk=     27 Scr=      1
 Normal termination of Gaussian 16 at Wed Apr  2 12:53:35 2025.
