 Entering Gaussian System, Link 0=g16
 Initial command:
 /usr/local/gaussian16c01/g16/l1.exe "/scr/dhuang/Gau-416071.inp" -scrdir="/scr/dhuang/"
 Entering Link 1 = /usr/local/gaussian16c01/g16/l1.exe PID=    416072.
  
 Copyright (c) 1988-2019, Gaussian, Inc.  All Rights Reserved.
  
 This is part of the Gaussian(R) 16 program.  It is based on
 the Gaussian(R) 09 system (copyright 2009, Gaussian, Inc.),
 the Gaussian(R) 03 system (copyright 2003, Gaussian, Inc.),
 the Gaussian(R) 98 system (copyright 1998, Gaussian, Inc.),
 the Gaussian(R) 94 system (copyright 1995, Gaussian, Inc.),
 the Gaussian 92(TM) system (copyright 1992, Gaussian, Inc.),
 the Gaussian 90(TM) system (copyright 1990, Gaussian, Inc.),
 the Gaussian 88(TM) system (copyright 1988, Gaussian, Inc.),
 the Gaussian 86(TM) system (copyright 1986, Carnegie Mellon
 University), and the Gaussian 82(TM) system (copyright 1983,
 Carnegie Mellon University). Gaussian is a federally registered
 trademark of Gaussian, Inc.
  
 This software contains proprietary and confidential information,
 including trade secrets, belonging to Gaussian, Inc.
  
 This software is provided under written license and may be
 used, copied, transmitted, or stored only in accord with that
 written license.
  
 The following legend is applicable only to US Government
 contracts under FAR:
  
                    RESTRICTED RIGHTS LEGEND
  
 Use, reproduction and disclosure by the US Government is
 subject to restrictions as set forth in subparagraphs (a)
 and (c) of the Commercial Computer Software - Restricted
 Rights clause in FAR 52.227-19.
  
 Gaussian, Inc.
 340 Quinnipiac St., Bldg. 40, Wallingford CT 06492
  
  
 ---------------------------------------------------------------
 Warning -- This program may not be used in any manner that
 competes with the business of Gaussian, Inc. or will provide
 assistance to any competitor of Gaussian, Inc.  The licensee
 of this program is prohibited from giving any competitor of
 Gaussian, Inc. access to this program.  By using this program,
 the user acknowledges that Gaussian, Inc. is engaged in the
 business of creating and licensing software in the field of
 computational chemistry and represents and warrants to the
 licensee that it is not a competitor of Gaussian, Inc. and that
 it will not use this program in any manner prohibited above.
 ---------------------------------------------------------------
  

 Cite this work as:
 Gaussian 16, Revision C.01,
 M. J. Frisch, G. W. Trucks, H. B. Schlegel, G. E. Scuseria, 
 M. A. Robb, J. R. Cheeseman, G. Scalmani, V. Barone, 
 G. A. Petersson, H. Nakatsuji, X. Li, M. Caricato, A. V. Marenich, 
 J. Bloino, B. G. Janesko, R. Gomperts, B. Mennucci, H. P. Hratchian, 
 J. V. Ortiz, A. F. Izmaylov, J. L. Sonnenberg, D. Williams-Young, 
 F. Ding, F. Lipparini, F. Egidi, J. Goings, B. Peng, A. Petrone, 
 T. Henderson, D. Ranasinghe, V. G. Zakrzewski, J. Gao, N. Rega, 
 G. Zheng, W. Liang, M. Hada, M. Ehara, K. Toyota, R. Fukuda, 
 J. Hasegawa, M. Ishida, T. Nakajima, Y. Honda, O. Kitao, H. Nakai, 
 T. Vreven, K. Throssell, J. A. Montgomery, Jr., J. E. Peralta, 
 F. Ogliaro, M. J. Bearpark, J. J. Heyd, E. N. Brothers, K. N. Kudin, 
 V. N. Staroverov, T. A. Keith, R. Kobayashi, J. Normand, 
 K. Raghavachari, A. P. Rendell, J. C. Burant, S. S. Iyengar, 
 J. Tomasi, M. Cossi, J. M. Millam, M. Klene, C. Adamo, R. Cammi, 
 J. W. Ochterski, R. L. Martin, K. Morokuma, O. Farkas, 
 J. B. Foresman, and D. J. Fox, Gaussian, Inc., Wallingford CT, 2019.
 
 ******************************************
 Gaussian 16:  ES64L-G16RevC.01  3-Jul-2019
                 4-Mar-2025 
 ******************************************
 %nprocshared=20
 Will use up to   20 processors via shared memory.
 %mem=10000MW
 %chk=1.chk
 ------------------------------------
 # opt freq m062x/aug-cc-pvtz pop=nbo
 ------------------------------------
 1/18=20,19=15,26=3,38=1/1,3;
 2/9=110,12=2,17=6,18=5,40=1/2;
 3/5=16,6=1,7=10,11=2,25=1,30=1,71=1,74=-55/1,2,3;
 4//1;
 5/5=2,38=5/2;
 6/7=2,8=2,9=2,10=2,28=1,40=1/1,7;
 7//1,2,3,16;
 1/18=20,19=15,26=3/3(2);
 2/9=110/2;
 99//99;
 2/9=110/2;
 3/5=16,6=1,7=10,11=2,25=1,30=1,71=1,74=-55/1,2,3;
 4/5=5,16=3,69=1/1;
 5/5=2,38=5/2;
 7//1,2,3,16;
 1/18=20,19=15,26=3/3(-5);
 2/9=110/2;
 6/7=2,8=2,9=2,10=2,19=2,28=1,40=1/1,7;
 99/9=1/99;
 -
 1
 -
 Symbolic Z-matrix:
 Charge =  0 Multiplicity = 1
 C                     1.02      1.63759  -1.16839 
 C                     1.57089   1.33583  -2.36081 
 C                     0.96146   1.66712  -3.5106 
 C                    -0.21511   2.30902  -3.49127 
 C                    -0.77608   2.61617  -2.31317 
 C                    -0.16371   2.28338  -1.16546 
 C                     1.6463    1.2971   -0.0014 
 O                     1.15791   1.56518   1.08132 
 O                     2.8398    0.6455   -0.002 
 H                     2.53464   0.81006  -2.44982 
 H                     1.42774   1.4119   -4.47753 
 H                    -0.71652   2.58156  -4.43481 
 H                    -1.74445   3.1444   -2.2908 
 H                    -0.67691   2.56421  -0.23064 
 H                     3.15191   0.47621   0.89831 
 

 GradGradGradGradGradGradGradGradGradGradGradGradGradGradGradGradGradGrad
 Berny optimization.
 Initialization pass.
                           ----------------------------
                           !    Initial Parameters    !
                           ! (Angstroms and Degrees)  !
 --------------------------                            --------------------------
 ! Name  Definition              Value          Derivative Info.                !
 --------------------------------------------------------------------------------
 ! R1    R(1,2)                  1.3477         estimate D2E/DX2                !
 ! R2    R(1,6)                  1.3484         estimate D2E/DX2                !
 ! R3    R(1,7)                  1.3675         estimate D2E/DX2                !
 ! R4    R(2,3)                  1.3428         estimate D2E/DX2                !
 ! R5    R(2,10)                 1.1014         estimate D2E/DX2                !
 ! R6    R(3,4)                  1.3404         estimate D2E/DX2                !
 ! R7    R(3,11)                 1.1034         estimate D2E/DX2                !
 ! R8    R(4,5)                  1.3405         estimate D2E/DX2                !
 ! R9    R(4,12)                 1.1027         estimate D2E/DX2                !
 ! R10   R(5,6)                  1.3428         estimate D2E/DX2                !
 ! R11   R(5,13)                 1.1033         estimate D2E/DX2                !
 ! R12   R(6,14)                 1.1028         estimate D2E/DX2                !
 ! R13   R(7,8)                  1.2177         estimate D2E/DX2                !
 ! R14   R(7,9)                  1.3598         estimate D2E/DX2                !
 ! R15   R(9,15)                 0.9678         estimate D2E/DX2                !
 ! A1    A(2,1,6)              117.9028         estimate D2E/DX2                !
 ! A2    A(2,1,7)              120.8026         estimate D2E/DX2                !
 ! A3    A(6,1,7)              121.2946         estimate D2E/DX2                !
 ! A4    A(1,2,3)              121.1195         estimate D2E/DX2                !
 ! A5    A(1,2,10)             122.4138         estimate D2E/DX2                !
 ! A6    A(3,2,10)             116.4667         estimate D2E/DX2                !
 ! A7    A(2,3,4)              120.2758         estimate D2E/DX2                !
 ! A8    A(2,3,11)             120.0984         estimate D2E/DX2                !
 ! A9    A(4,3,11)             119.6258         estimate D2E/DX2                !
 ! A10   A(3,4,5)              119.3225         estimate D2E/DX2                !
 ! A11   A(3,4,12)             120.3413         estimate D2E/DX2                !
 ! A12   A(5,4,12)             120.3361         estimate D2E/DX2                !
 ! A13   A(4,5,6)              120.2355         estimate D2E/DX2                !
 ! A14   A(4,5,13)             119.6582         estimate D2E/DX2                !
 ! A15   A(6,5,13)             120.1063         estimate D2E/DX2                !
 ! A16   A(1,6,5)              121.1438         estimate D2E/DX2                !
 ! A17   A(1,6,14)             122.163          estimate D2E/DX2                !
 ! A18   A(5,6,14)             116.6932         estimate D2E/DX2                !
 ! A19   A(1,7,8)              121.3524         estimate D2E/DX2                !
 ! A20   A(1,7,9)              121.3938         estimate D2E/DX2                !
 ! A21   A(8,7,9)              117.2538         estimate D2E/DX2                !
 ! A22   A(7,9,15)             111.498          estimate D2E/DX2                !
 ! D1    D(6,1,2,3)             -0.0013         estimate D2E/DX2                !
 ! D2    D(6,1,2,10)           179.994          estimate D2E/DX2                !
 ! D3    D(7,1,2,3)            179.9992         estimate D2E/DX2                !
 ! D4    D(7,1,2,10)            -0.0056         estimate D2E/DX2                !
 ! D5    D(2,1,6,5)              0.0061         estimate D2E/DX2                !
 ! D6    D(2,1,6,14)           179.9941         estimate D2E/DX2                !
 ! D7    D(7,1,6,5)           -179.9943         estimate D2E/DX2                !
 ! D8    D(7,1,6,14)            -0.0063         estimate D2E/DX2                !
 ! D9    D(2,1,7,8)            179.9745         estimate D2E/DX2                !
 ! D10   D(2,1,7,9)             -0.0206         estimate D2E/DX2                !
 ! D11   D(6,1,7,8)             -0.025          estimate D2E/DX2                !
 ! D12   D(6,1,7,9)            179.9798         estimate D2E/DX2                !
 ! D13   D(1,2,3,4)              0.0009         estimate D2E/DX2                !
 ! D14   D(1,2,3,11)           179.9916         estimate D2E/DX2                !
 ! D15   D(10,2,3,4)          -179.9946         estimate D2E/DX2                !
 ! D16   D(10,2,3,11)           -0.0039         estimate D2E/DX2                !
 ! D17   D(2,3,4,5)             -0.0052         estimate D2E/DX2                !
 ! D18   D(2,3,4,12)          -179.9985         estimate D2E/DX2                !
 ! D19   D(11,3,4,5)          -179.996          estimate D2E/DX2                !
 ! D20   D(11,3,4,12)            0.0107         estimate D2E/DX2                !
 ! D21   D(3,4,5,6)              0.0101         estimate D2E/DX2                !
 ! D22   D(3,4,5,13)          -179.9954         estimate D2E/DX2                !
 ! D23   D(12,4,5,6)          -179.9967         estimate D2E/DX2                !
 ! D24   D(12,4,5,13)           -0.0021         estimate D2E/DX2                !
 ! D25   D(4,5,6,1)             -0.0107         estimate D2E/DX2                !
 ! D26   D(4,5,6,14)          -179.9993         estimate D2E/DX2                !
 ! D27   D(13,5,6,1)           179.9948         estimate D2E/DX2                !
 ! D28   D(13,5,6,14)            0.0062         estimate D2E/DX2                !
 ! D29   D(1,7,9,15)           180.0            estimate D2E/DX2                !
 ! D30   D(8,7,9,15)             0.0047         estimate D2E/DX2                !
 --------------------------------------------------------------------------------
 Trust Radius=3.00D-01 FncErr=1.00D-07 GrdErr=1.00D-06 EigMax=2.50D+02 EigMin=1.00D-04
 Number of steps in this run=     77 maximum allowed number of steps=    100.
 GradGradGradGradGradGradGradGradGradGradGradGradGradGradGradGradGradGrad

                          Input orientation:                          
 ---------------------------------------------------------------------
 Center     Atomic      Atomic             Coordinates (Angstroms)
 Number     Number       Type             X           Y           Z
 ---------------------------------------------------------------------
      1          6           0        1.020003    1.637588   -1.168387
      2          6           0        1.570888    1.335829   -2.360811
      3          6           0        0.961455    1.667116   -3.510600
      4          6           0       -0.215106    2.309019   -3.491270
      5          6           0       -0.776081    2.616166   -2.313172
      6          6           0       -0.163708    2.283385   -1.165457
      7          6           0        1.646300    1.297100   -0.001400
      8          8           0        1.157910    1.565179    1.081322
      9          8           0        2.839800    0.645500   -0.002000
     10          1           0        2.534644    0.810057   -2.449825
     11          1           0        1.427742    1.411901   -4.477527
     12          1           0       -0.716523    2.581563   -4.434809
     13          1           0       -1.744451    3.144402   -2.290798
     14          1           0       -0.676908    2.564212   -0.230643
     15          1           0        3.151911    0.476214    0.898308
 ---------------------------------------------------------------------
                    Distance matrix (angstroms):
                    1          2          3          4          5
     1  C    0.000000
     2  C    1.347741   0.000000
     3  C    2.343131   1.342824   0.000000
     4  C    2.715161   2.326975   1.340414   0.000000
     5  C    2.343942   2.673910   2.313776   1.340503   0.000000
     6  C    1.348419   2.309882   2.673102   2.326522   1.342755
     7  C    1.367494   2.360933   3.594497   4.082647   3.598910
     8  O    2.255095   3.474396   4.597253   4.831881   4.045675
     9  O    2.378310   2.765986   4.108790   4.926941   4.722249
    10  H    2.149657   1.101447   2.081998   3.300397   3.773804
    11  H    3.341795   2.122915   1.103406   2.115768   3.315346
    12  H    3.817868   3.329500   2.122730   1.102708   2.122755
    13  H    3.342529   3.777209   3.315452   2.116104   1.103302
    14  H    2.148838   3.331536   3.774538   3.303040   2.085536
    15  H    3.188268   3.722960   5.065059   5.827897   5.506553
                    6          7          8          9         10
     6  C    0.000000
     7  C    2.367259   0.000000
     8  O    2.703796   1.217653   0.000000
     9  O    3.613497   1.359789   2.201851   0.000000
    10  H    3.331876   2.649745   3.864531   2.472255   0.000000
    11  H    3.776507   4.482930   5.567505   4.755168   2.387263
    12  H    3.329140   5.185353   5.913902   6.003796   4.201009
    13  H    2.122849   4.488993   4.721105   5.700742   4.876998
    14  H    1.102777   2.656205   2.466957   4.012602   4.279708
    15  H    4.303293   1.936542   2.279338   0.967795   3.420887
                   11         12         13         14         15
    11  H    0.000000
    12  H    2.442909   0.000000
    13  H    4.224471   2.443401   0.000000
    14  H    4.877848   4.204389   2.391758   0.000000
    15  H    5.722576   6.916604   6.423705   4.504901   0.000000
 Stoichiometry    C7H6O2
 Framework group  C1[X(C7H6O2)]
 Deg. of freedom    39
 Full point group                 C1      NOp   1
 Largest Abelian subgroup         C1      NOp   1
 Largest concise Abelian subgroup C1      NOp   1
                         Standard orientation:                         
 ---------------------------------------------------------------------
 Center     Atomic      Atomic             Coordinates (Angstroms)
 Number     Number       Type             X           Y           Z
 ---------------------------------------------------------------------
      1          6           0        0.227158    0.043759   -0.000009
      2          6           0       -0.414644   -1.141356   -0.000122
      3          6           0       -1.755997   -1.204182   -0.000117
      4          6           0       -2.485205   -0.079476   -0.000017
      5          6           0       -1.861669    1.107180    0.000186
      6          6           0       -0.520208    1.166113    0.000083
      7          6           0        1.593487    0.100181    0.000003
      8          8           0        2.183588    1.165291   -0.000358
      9          8           0        2.349113   -1.030329    0.000319
     10          1           0        0.121841   -2.103317   -0.000300
     11          1           0       -2.264070   -2.183655   -0.000351
     12          1           0       -3.586763   -0.129808    0.000012
     13          1           0       -2.456449    2.036433    0.000347
     14          1           0       -0.068546    2.172154    0.000274
     15          1           0        3.294835   -0.824812    0.000283
 ---------------------------------------------------------------------
 Rotational constants (GHZ):           4.1476812           1.3003765           0.9899945
 Standard basis: Aug-CC-pVTZ (5D, 7F)
 There are   645 symmetry adapted cartesian basis functions of A   symmetry.
 There are   552 symmetry adapted basis functions of A   symmetry.
   552 basis functions,   810 primitive gaussians,   645 cartesian basis functions
    32 alpha electrons       32 beta electrons
       nuclear repulsion energy       416.4726021967 Hartrees.
 NAtoms=   15 NActive=   15 NUniq=   15 SFac= 1.00D+00 NAtFMM=   60 NAOKFM=F Big=F
 Integral buffers will be    131072 words long.
 Raffenetti 2 integral format.
 Two-electron integral symmetry is turned on.
 One-electron integrals computed using PRISM.
 NBasis=   552 RedAO= T EigKep=  1.04D-06  NBF=   552
 NBsUse=   550 1.00D-06 EigRej=  7.09D-07 NBFU=   550
 ExpMin= 2.53D-02 ExpMax= 1.53D+04 ExpMxC= 5.22D+02 IAcc=3 IRadAn=         5 AccDes= 0.00D+00
 Harris functional with IExCor= 1009 and IRadAn=       5 diagonalized for initial guess.
 HarFok:  IExCor= 1009 AccDes= 0.00D+00 IRadAn=         5 IDoV= 1 UseB2=F ITyADJ=14
 ICtDFT=  3500011 ScaDFX=  1.000000  1.000000  1.000000  1.000000
 FoFCou: FMM=F IPFlag=           0 FMFlag=      100000 FMFlg1=           0
         NFxFlg=           0 DoJE=T BraDBF=F KetDBF=T FulRan=T
         wScrn=  0.000000 ICntrl=       500 IOpCl=  0 I1Cent=   200000004 NGrid=           0
         NMat0=    1 NMatS0=      1 NMatT0=    0 NMatD0=    1 NMtDS0=    0 NMtDT0=    0
 Petite list used in FoFCou.
 Requested convergence on RMS density matrix=1.00D-08 within 128 cycles.
 Requested convergence on MAX density matrix=1.00D-06.
 Requested convergence on             energy=1.00D-06.
 No special actions if energy rises.
 SCF Done:  E(RM062X) =  -420.789255037     A.U. after   13 cycles
            NFock= 13  Conv=0.92D-08     -V/T= 2.0031

 **********************************************************************

            Population analysis using the SCF Density.

 **********************************************************************

 Orbital symmetries:
       Occupied  (A) (A) (A) (A) (A) (A) (A) (A) (A) (A) (A) (A)
                 (A) (A) (A) (A) (A) (A) (A) (A) (A) (A) (A) (A)
                 (A) (A) (A) (A) (A) (A) (A) (A)
       Virtual   (A) (A) (A) (A) (A) (A) (A) (A) (A) (A) (A) (A)
                 (A) (A) (A) (A) (A) (A) (A) (A) (A) (A) (A) (A)
                 (A) (A) (A) (A) (A) (A) (A) (A) (A) (A) (A) (A)
                 (A) (A) (A) (A) (A) (A) (A) (A) (A) (A) (A) (A)
                 (A) (A) (A) (A) (A) (A) (A) (A) (A) (A) (A) (A)
                 (A) (A) (A) (A) (A) (A) (A) (A) (A) (A) (A) (A)
                 (A) (A) (A) (A) (A) (A) (A) (A) (A) (A) (A) (A)
                 (A) (A) (A) (A) (A) (A) (A) (A) (A) (A) (A) (A)
                 (A) (A) (A) (A) (A) (A) (A) (A) (A) (A) (A) (A)
                 (A) (A) (A) (A) (A) (A) (A) (A) (A) (A) (A) (A)
                 (A) (A) (A) (A) (A) (A) (A) (A) (A) (A) (A) (A)
                 (A) (A) (A) (A) (A) (A) (A) (A) (A) (A) (A) (A)
                 (A) (A) (A) (A) (A) (A) (A) (A) (A) (A) (A) (A)
                 (A) (A) (A) (A) (A) (A) (A) (A) (A) (A) (A) (A)
                 (A) (A) (A) (A) (A) (A) (A) (A) (A) (A) (A) (A)
                 (A) (A) (A) (A) (A) (A) (A) (A) (A) (A) (A) (A)
                 (A) (A) (A) (A) (A) (A) (A) (A) (A) (A) (A) (A)
                 (A) (A) (A) (A) (A) (A) (A) (A) (A) (A) (A) (A)
                 (A) (A) (A) (A) (A) (A) (A) (A) (A) (A) (A) (A)
                 (A) (A) (A) (A) (A) (A) (A) (A) (A) (A) (A) (A)
                 (A) (A) (A) (A) (A) (A) (A) (A) (A) (A) (A) (A)
                 (A) (A) (A) (A) (A) (A) (A) (A) (A) (A) (A) (A)
                 (A) (A) (A) (A) (A) (A) (A) (A) (A) (A) (A) (A)
                 (A) (A) (A) (A) (A) (A) (A) (A) (A) (A) (A) (A)
                 (A) (A) (A) (A) (A) (A) (A) (A) (A) (A) (A) (A)
                 (A) (A) (A) (A) (A) (A) (A) (A) (A) (A) (A) (A)
                 (A) (A) (A) (A) (A) (A) (A) (A) (A) (A) (A) (A)
                 (A) (A) (A) (A) (A) (A) (A) (A) (A) (A) (A) (A)
                 (A) (A) (A) (A) (A) (A) (A) (A) (A) (A) (A) (A)
                 (A) (A) (A) (A) (A) (A) (A) (A) (A) (A) (A) (A)
                 (A) (A) (A) (A) (A) (A) (A) (A) (A) (A) (A) (A)
                 (A) (A) (A) (A) (A) (A) (A) (A) (A) (A) (A) (A)
                 (A) (A) (A) (A) (A) (A) (A) (A) (A) (A) (A) (A)
                 (A) (A) (A) (A) (A) (A) (A) (A) (A) (A) (A) (A)
                 (A) (A) (A) (A) (A) (A) (A) (A) (A) (A) (A) (A)
                 (A) (A) (A) (A) (A) (A) (A) (A) (A) (A) (A) (A)
                 (A) (A) (A) (A) (A) (A) (A) (A) (A) (A) (A) (A)
                 (A) (A) (A) (A) (A) (A) (A) (A) (A) (A) (A) (A)
                 (A) (A) (A) (A) (A) (A) (A) (A) (A) (A) (A) (A)
                 (A) (A) (A) (A) (A) (A) (A) (A) (A) (A) (A) (A)
                 (A) (A) (A) (A) (A) (A) (A) (A) (A) (A) (A) (A)
                 (A) (A) (A) (A) (A) (A) (A) (A) (A) (A) (A) (A)
                 (A) (A) (A) (A) (A) (A) (A) (A) (A) (A) (A) (A)
                 (A) (A)
 The electronic state is 1-A.
 Alpha  occ. eigenvalues --  -19.66904 -19.60677 -10.67245 -10.55352 -10.55285
 Alpha  occ. eigenvalues --  -10.55251 -10.55139 -10.54667 -10.54659  -1.23383
 Alpha  occ. eigenvalues --   -1.13103  -1.01278  -0.90453  -0.87319  -0.77459
 Alpha  occ. eigenvalues --   -0.71526  -0.68313  -0.63766  -0.58337  -0.56082
 Alpha  occ. eigenvalues --   -0.54650  -0.54571  -0.51815  -0.50272  -0.47946
 Alpha  occ. eigenvalues --   -0.47180  -0.42939  -0.41144  -0.39853  -0.35607
 Alpha  occ. eigenvalues --   -0.33673  -0.33230
 Alpha virt. eigenvalues --   -0.03239  -0.00853   0.00087   0.00700   0.01458
 Alpha virt. eigenvalues --    0.01890   0.02834   0.03096   0.03707   0.05188
 Alpha virt. eigenvalues --    0.05672   0.06181   0.06195   0.07238   0.07854
 Alpha virt. eigenvalues --    0.07914   0.08096   0.08624   0.09318   0.09449
 Alpha virt. eigenvalues --    0.09978   0.10216   0.10493   0.11225   0.11364
 Alpha virt. eigenvalues --    0.11579   0.11617   0.12921   0.13288   0.14296
 Alpha virt. eigenvalues --    0.16279   0.16386   0.16826   0.17566   0.18581
 Alpha virt. eigenvalues --    0.19162   0.19720   0.20219   0.20473   0.20759
 Alpha virt. eigenvalues --    0.21007   0.21581   0.21725   0.23012   0.23137
 Alpha virt. eigenvalues --    0.23663   0.24115   0.24225   0.24266   0.24570
 Alpha virt. eigenvalues --    0.26003   0.26112   0.26939   0.27250   0.28091
 Alpha virt. eigenvalues --    0.29201   0.29814   0.29963   0.31018   0.31273
 Alpha virt. eigenvalues --    0.32408   0.32565   0.33859   0.33972   0.34357
 Alpha virt. eigenvalues --    0.34922   0.35088   0.35840   0.35861   0.36831
 Alpha virt. eigenvalues --    0.36972   0.37537   0.37545   0.38503   0.38544
 Alpha virt. eigenvalues --    0.39221   0.39943   0.40118   0.41139   0.41318
 Alpha virt. eigenvalues --    0.41859   0.42607   0.43157   0.43798   0.44367
 Alpha virt. eigenvalues --    0.44616   0.44790   0.45756   0.45844   0.46423
 Alpha virt. eigenvalues --    0.48763   0.49473   0.50053   0.51873   0.52516
 Alpha virt. eigenvalues --    0.53493   0.53821   0.53863   0.55136   0.55602
 Alpha virt. eigenvalues --    0.56127   0.56442   0.56947   0.57274   0.57418
 Alpha virt. eigenvalues --    0.60565   0.61604   0.62447   0.62794   0.62897
 Alpha virt. eigenvalues --    0.64682   0.65144   0.65926   0.66459   0.67595
 Alpha virt. eigenvalues --    0.68527   0.68717   0.70194   0.70363   0.71908
 Alpha virt. eigenvalues --    0.72698   0.72980   0.73624   0.74711   0.75041
 Alpha virt. eigenvalues --    0.75657   0.75678   0.76568   0.77281   0.77317
 Alpha virt. eigenvalues --    0.77733   0.78859   0.78872   0.79557   0.79795
 Alpha virt. eigenvalues --    0.80461   0.81471   0.81560   0.83804   0.84366
 Alpha virt. eigenvalues --    0.84736   0.85125   0.85444   0.85937   0.86065
 Alpha virt. eigenvalues --    0.87328   0.87952   0.88623   0.88626   0.89598
 Alpha virt. eigenvalues --    0.90179   0.90717   0.92213   0.92758   0.93876
 Alpha virt. eigenvalues --    0.94096   0.95173   0.95663   0.96029   0.96233
 Alpha virt. eigenvalues --    0.96396   0.97418   0.98229   0.99429   0.99443
 Alpha virt. eigenvalues --    1.00763   1.01311   1.02233   1.02603   1.03340
 Alpha virt. eigenvalues --    1.04423   1.05094   1.05496   1.06780   1.06916
 Alpha virt. eigenvalues --    1.07539   1.08582   1.10169   1.10757   1.11712
 Alpha virt. eigenvalues --    1.11754   1.12048   1.14145   1.14578   1.14653
 Alpha virt. eigenvalues --    1.15697   1.18184   1.18313   1.19525   1.20930
 Alpha virt. eigenvalues --    1.21083   1.21427   1.22036   1.23597   1.25245
 Alpha virt. eigenvalues --    1.26397   1.26947   1.29433   1.30446   1.32098
 Alpha virt. eigenvalues --    1.33059   1.33258   1.34264   1.34494   1.35984
 Alpha virt. eigenvalues --    1.37949   1.38306   1.38933   1.39349   1.39984
 Alpha virt. eigenvalues --    1.42115   1.43642   1.44779   1.47271   1.49856
 Alpha virt. eigenvalues --    1.50111   1.50182   1.52026   1.52034   1.53163
 Alpha virt. eigenvalues --    1.53455   1.54462   1.54855   1.55627   1.57123
 Alpha virt. eigenvalues --    1.57612   1.59623   1.61657   1.64575   1.64900
 Alpha virt. eigenvalues --    1.66003   1.66046   1.66638   1.67533   1.68291
 Alpha virt. eigenvalues --    1.68635   1.69740   1.70757   1.71792   1.72005
 Alpha virt. eigenvalues --    1.73244   1.77549   1.78465   1.80541   1.80743
 Alpha virt. eigenvalues --    1.81080   1.82739   1.83338   1.85480   1.86264
 Alpha virt. eigenvalues --    1.87153   1.87645   1.88192   1.88589   1.90796
 Alpha virt. eigenvalues --    1.91289   1.91937   1.93032   1.94556   1.95269
 Alpha virt. eigenvalues --    1.96255   1.97182   2.00229   2.00824   2.02300
 Alpha virt. eigenvalues --    2.04098   2.05462   2.06404   2.08523   2.09972
 Alpha virt. eigenvalues --    2.11680   2.12580   2.14152   2.15270   2.15787
 Alpha virt. eigenvalues --    2.16627   2.20616   2.22672   2.23280   2.24227
 Alpha virt. eigenvalues --    2.26278   2.26887   2.29284   2.29456   2.31704
 Alpha virt. eigenvalues --    2.33508   2.36445   2.37207   2.37922   2.39055
 Alpha virt. eigenvalues --    2.41088   2.41919   2.43061   2.45978   2.47968
 Alpha virt. eigenvalues --    2.50357   2.50713   2.52401   2.56127   2.56683
 Alpha virt. eigenvalues --    2.57035   2.58693   2.60591   2.65270   2.66405
 Alpha virt. eigenvalues --    2.68139   2.70421   2.71021   2.76160   2.76944
 Alpha virt. eigenvalues --    2.79589   2.80483   2.84636   2.85510   2.87777
 Alpha virt. eigenvalues --    2.88744   2.94966   2.95380   2.96601   2.97803
 Alpha virt. eigenvalues --    2.99021   2.99600   3.00307   3.00963   3.04486
 Alpha virt. eigenvalues --    3.06423   3.07165   3.09683   3.11088   3.12658
 Alpha virt. eigenvalues --    3.12818   3.13725   3.14262   3.14847   3.15199
 Alpha virt. eigenvalues --    3.18635   3.19725   3.21624   3.21966   3.24304
 Alpha virt. eigenvalues --    3.25341   3.26854   3.26873   3.28762   3.29247
 Alpha virt. eigenvalues --    3.29475   3.32275   3.36672   3.37776   3.38410
 Alpha virt. eigenvalues --    3.40188   3.41030   3.41617   3.44189   3.46586
 Alpha virt. eigenvalues --    3.47441   3.49312   3.51792   3.53013   3.53383
 Alpha virt. eigenvalues --    3.55202   3.56585   3.57282   3.59302   3.60182
 Alpha virt. eigenvalues --    3.60518   3.60923   3.62618   3.64099   3.65084
 Alpha virt. eigenvalues --    3.66653   3.67742   3.69701   3.73106   3.73748
 Alpha virt. eigenvalues --    3.76190   3.76870   3.78560   3.80642   3.81523
 Alpha virt. eigenvalues --    3.82449   3.82650   3.83519   3.85520   3.86813
 Alpha virt. eigenvalues --    3.88161   3.90099   3.91519   3.92078   3.94182
 Alpha virt. eigenvalues --    3.95453   3.96595   3.98656   3.99030   4.00000
 Alpha virt. eigenvalues --    4.01330   4.02127   4.02786   4.04624   4.07173
 Alpha virt. eigenvalues --    4.07375   4.11340   4.11964   4.12212   4.13253
 Alpha virt. eigenvalues --    4.15148   4.15559   4.19452   4.19921   4.21411
 Alpha virt. eigenvalues --    4.22295   4.23657   4.25708   4.30110   4.32401
 Alpha virt. eigenvalues --    4.34891   4.36481   4.40336   4.40747   4.41250
 Alpha virt. eigenvalues --    4.43248   4.43976   4.45645   4.52102   4.52277
 Alpha virt. eigenvalues --    4.56429   4.58337   4.61866   4.61888   4.63423
 Alpha virt. eigenvalues --    4.64124   4.67152   4.68234   4.68248   4.68838
 Alpha virt. eigenvalues --    4.71895   4.72857   4.76173   4.77396   4.78301
 Alpha virt. eigenvalues --    4.78783   4.81040   4.82628   4.84557   4.86812
 Alpha virt. eigenvalues --    4.90316   4.92519   4.98341   4.98948   4.99540
 Alpha virt. eigenvalues --    5.02789   5.02969   5.03026   5.03901   5.06366
 Alpha virt. eigenvalues --    5.09328   5.09612   5.11906   5.21806   5.26275
 Alpha virt. eigenvalues --    5.31364   5.33849   5.39961   5.42308   5.46484
 Alpha virt. eigenvalues --    5.46726   5.52334   5.59257   5.71357   5.72844
 Alpha virt. eigenvalues --    5.82366   5.86159   5.88483   5.92621   5.95023
 Alpha virt. eigenvalues --    6.01304   6.06237   6.20295   6.24306   6.25837
 Alpha virt. eigenvalues --    6.29670   6.36789   6.37778   6.39341   6.42472
 Alpha virt. eigenvalues --    6.48352   6.52589   6.54684   6.55591   6.65793
 Alpha virt. eigenvalues --    6.71177   6.76112   6.78174   6.80092   6.82996
 Alpha virt. eigenvalues --    6.86031   6.88780   6.92056   7.02496   7.08470
 Alpha virt. eigenvalues --    7.08550   7.13816   7.19934   7.32586   7.41370
 Alpha virt. eigenvalues --    7.52685   7.68471   7.88414   8.06807  15.33456
 Alpha virt. eigenvalues --   15.65627  16.95792  17.61145  17.91617  18.73313
 Alpha virt. eigenvalues --   19.98204  20.02833  20.47578
          Condensed to atoms (all electrons):
               1          2          3          4          5          6
     1  C    6.883978  -0.644314  -0.080233  -0.510332  -0.030404  -0.999998
     2  C   -0.644314   7.969601  -0.169395   0.119554  -0.673245   0.107475
     3  C   -0.080233  -0.169395   7.110238  -0.175364   0.264118  -0.681699
     4  C   -0.510332   0.119554  -0.175364   6.593540  -0.185209   0.217671
     5  C   -0.030404  -0.673245   0.264118  -0.185209   6.959691  -0.068789
     6  C   -0.999998   0.107475  -0.681699   0.217671  -0.068789   8.385906
     7  C   -0.526896  -0.399290   0.133810   0.108476  -0.007120  -0.298144
     8  O   -0.126571  -0.008444  -0.051895  -0.003115  -0.057996   0.101380
     9  O   -0.016181   0.017798  -0.054852   0.002392  -0.022979   0.024405
    10  H   -0.130128   0.391050  -0.432512   0.044797  -0.013341   0.085322
    11  H    0.022360  -0.204720   0.591660  -0.251301   0.037086   0.002453
    12  H   -0.044252   0.082040  -0.258383   0.535163  -0.278794   0.081352
    13  H    0.041339  -0.009512   0.028821  -0.252458   0.570829  -0.192372
    14  H   -0.127233   0.046180   0.000662   0.028928  -0.362940   0.369786
    15  H    0.013294   0.030043   0.025897  -0.000983  -0.004139  -0.057152
               7          8          9         10         11         12
     1  C   -0.526896  -0.126571  -0.016181  -0.130128   0.022360  -0.044252
     2  C   -0.399290  -0.008444   0.017798   0.391050  -0.204720   0.082040
     3  C    0.133810  -0.051895  -0.054852  -0.432512   0.591660  -0.258383
     4  C    0.108476  -0.003115   0.002392   0.044797  -0.251301   0.535163
     5  C   -0.007120  -0.057996  -0.022979  -0.013341   0.037086  -0.278794
     6  C   -0.298144   0.101380   0.024405   0.085322   0.002453   0.081352
     7  C    6.839615   0.013331   0.041520  -0.019311   0.008751  -0.002151
     8  O    0.013331   9.280521  -0.106775   0.013496  -0.001698   0.001073
     9  O    0.041520  -0.106775   8.581637  -0.050679  -0.003600   0.001073
    10  H   -0.019311   0.013496  -0.050679   0.824413  -0.022675  -0.002714
    11  H    0.008751  -0.001698  -0.003600  -0.022675   0.646667  -0.019525
    12  H   -0.002151   0.001073   0.001073  -0.002714  -0.019525   0.653418
    13  H   -0.002269  -0.003520  -0.001047   0.000625  -0.001731  -0.026467
    14  H    0.085212  -0.048995   0.003321  -0.008329   0.001297  -0.000309
    15  H    0.057180  -0.101861   0.152692  -0.002421   0.000942  -0.000173
              13         14         15
     1  C    0.041339  -0.127233   0.013294
     2  C   -0.009512   0.046180   0.030043
     3  C    0.028821   0.000662   0.025897
     4  C   -0.252458   0.028928  -0.000983
     5  C    0.570829  -0.362940  -0.004139
     6  C   -0.192372   0.369786  -0.057152
     7  C   -0.002269   0.085212   0.057180
     8  O   -0.003520  -0.048995  -0.101861
     9  O   -0.001047   0.003321   0.152692
    10  H    0.000625  -0.008329  -0.002421
    11  H   -0.001731   0.001297   0.000942
    12  H   -0.026467  -0.000309  -0.000173
    13  H    0.661665  -0.024530   0.000234
    14  H   -0.024530   0.736064  -0.000512
    15  H    0.000234  -0.000512   0.587221
 Mulliken charges:
               1
     1  C    2.275571
     2  C   -0.654818
     3  C   -0.250873
     4  C   -0.271760
     5  C   -0.126769
     6  C   -1.077597
     7  C   -0.032714
     8  O   -0.898932
     9  O   -0.568727
    10  H    0.322407
    11  H    0.194035
    12  H    0.278650
    13  H    0.210391
    14  H    0.301397
    15  H    0.299737
 Sum of Mulliken charges =   0.00000
 Mulliken charges with hydrogens summed into heavy atoms:
               1
     1  C    2.275571
     2  C   -0.332411
     3  C   -0.056838
     4  C    0.006890
     5  C    0.083622
     6  C   -0.776200
     7  C   -0.032714
     8  O   -0.898932
     9  O   -0.268990
 Electronic spatial extent (au):  <R**2>=           1118.1632
 Charge=              0.0000 electrons
 Dipole moment (field-independent basis, Debye):
    X=             -1.9212    Y=             -1.4483    Z=              0.0005  Tot=              2.4060
 Quadrupole moment (field-independent basis, Debye-Ang):
   XX=            -44.6400   YY=            -50.8852   ZZ=            -53.9586
   XY=             -5.1656   XZ=              0.0018   YZ=              0.0030
 Traceless Quadrupole moment (field-independent basis, Debye-Ang):
   XX=              5.1879   YY=             -1.0573   ZZ=             -4.1306
   XY=             -5.1656   XZ=              0.0018   YZ=              0.0030
 Octapole moment (field-independent basis, Debye-Ang**2):
  XXX=             23.1596  YYY=             -1.7795  ZZZ=             -0.0002  XYY=             -9.0460
  XXY=            -17.0177  XXZ=              0.0061  XZZ=             10.4580  YZZ=              0.3164
  YYZ=              0.0004  XYZ=              0.0012
 Hexadecapole moment (field-independent basis, Debye-Ang**3):
 XXXX=           -835.6972 YYYY=           -355.2597 ZZZZ=            -56.8682 XXXY=            -61.9769
 XXXZ=              0.0206 YYYX=             -7.7990 YYYZ=              0.0098 ZZZX=              0.0007
 ZZZY=             -0.0024 XXYY=           -237.5471 XXZZ=           -189.7195 YYZZ=            -78.6485
 XXYZ=              0.0092 YYXZ=              0.0023 ZZXY=             -0.4485
 N-N= 4.164726021967D+02 E-N=-1.815747330548D+03  KE= 4.194937078159D+02
 ******************************Gaussian NBO Version 3.1******************************
             N A T U R A L   A T O M I C   O R B I T A L   A N D
          N A T U R A L   B O N D   O R B I T A L   A N A L Y S I S
 ******************************Gaussian NBO Version 3.1******************************
       /RESON  / : Allow strongly delocalized NBO set

 Analyzing the SCF density

 Job title: 1                                                               

 Storage needed:    916440 in NPA,   1220743 in NBO (********** available)
 GSVD:  LWork=       15912 too small for GESVD, short by      558270 words or      558270 for optimal perf.


 NATURAL POPULATIONS:  Natural atomic orbital occupancies 
                                                          
   NAO  Atom  No  lang   Type(AO)    Occupancy      Energy
 ----------------------------------------------------------
     1    C    1  S      Cor( 1S)     1.99884     -10.37106
     2    C    1  S      Val( 2S)     0.88944      -0.11836
     3    C    1  S      Ryd( 3S)     0.00116       2.13097
     4    C    1  S      Ryd( 4S)     0.00007       2.59876
     5    C    1  S      Ryd( 5S)     0.00003       4.00193
     6    C    1  px     Val( 2p)     1.10289      -0.10760
     7    C    1  px     Ryd( 5p)     0.00589       2.42666
     8    C    1  px     Ryd( 4p)     0.00005       2.33905
     9    C    1  px     Ryd( 3p)     0.00006       1.09179
    10    C    1  py     Val( 2p)     1.13923      -0.10369
    11    C    1  py     Ryd( 5p)     0.00508       2.17834
    12    C    1  py     Ryd( 4p)     0.00008       2.12303
    13    C    1  py     Ryd( 3p)     0.00002       0.93479
    14    C    1  pz     Val( 2p)     1.07011      -0.13466
    15    C    1  pz     Ryd( 4p)     0.00120       0.97226
    16    C    1  pz     Ryd( 5p)     0.00009       1.88805
    17    C    1  pz     Ryd( 3p)     0.00001       0.59686
    18    C    1  dxy    Ryd( 3d)     0.00062       3.16274
    19    C    1  dxy    Ryd( 4d)     0.00038       3.60477
    20    C    1  dxy    Ryd( 5d)     0.00004       5.52542
    21    C    1  dxz    Ryd( 3d)     0.00014       1.69293
    22    C    1  dxz    Ryd( 5d)     0.00011       2.88252
    23    C    1  dxz    Ryd( 4d)     0.00003       2.18880
    24    C    1  dyz    Ryd( 3d)     0.00054       1.59195
    25    C    1  dyz    Ryd( 5d)     0.00002       2.74858
    26    C    1  dyz    Ryd( 4d)     0.00001       2.36602
    27    C    1  dx2y2  Ryd( 3d)     0.00218       3.37265
    28    C    1  dx2y2  Ryd( 4d)     0.00011       3.80904
    29    C    1  dx2y2  Ryd( 5d)     0.00001       4.78106
    30    C    1  dz2    Ryd( 3d)     0.00081       2.12352
    31    C    1  dz2    Ryd( 4d)     0.00017       3.73083
    32    C    1  dz2    Ryd( 5d)     0.00006       4.06759
    33    C    1  f(0)   Ryd( 4f)     0.00043       1.60839
    34    C    1  f(0)   Ryd( 5f)     0.00024       3.41357
    35    C    1  f(C1)  Ryd( 4f)     0.00044       2.07909
    36    C    1  f(C1)  Ryd( 5f)     0.00048       3.56076
    37    C    1  f(S1)  Ryd( 4f)     0.00080       2.00884
    38    C    1  f(S1)  Ryd( 5f)     0.00033       3.60842
    39    C    1  f(C2)  Ryd( 4f)     0.00052       1.57739
    40    C    1  f(C2)  Ryd( 5f)     0.00004       3.29006
    41    C    1  f(S2)  Ryd( 4f)     0.00072       1.53126
    42    C    1  f(S2)  Ryd( 5f)     0.00006       3.42028
    43    C    1  f(C3)  Ryd( 4f)     0.00121       2.99254
    44    C    1  f(C3)  Ryd( 5f)     0.00009       4.61598
    45    C    1  f(S3)  Ryd( 4f)     0.00180       2.66713
    46    C    1  f(S3)  Ryd( 5f)     0.00030       4.10472
 
    47    C    2  S      Cor( 1S)     1.99911     -10.38429
    48    C    2  S      Val( 2S)     0.94020      -0.18255
    49    C    2  S      Ryd( 4S)     0.00133       1.95144
    50    C    2  S      Ryd( 5S)     0.00012       2.88528
    51    C    2  S      Ryd( 3S)     0.00002       1.88878
    52    C    2  px     Val( 2p)     1.09348      -0.07317
    53    C    2  px     Ryd( 4p)     0.00365       1.95614
    54    C    2  px     Ryd( 3p)     0.00010       1.22969
    55    C    2  px     Ryd( 5p)     0.00007       2.32297
    56    C    2  py     Val( 2p)     1.13531      -0.06893
    57    C    2  py     Ryd( 4p)     0.00463       1.82740
    58    C    2  py     Ryd( 3p)     0.00005       1.48875
    59    C    2  py     Ryd( 5p)     0.00004       2.13432
    60    C    2  pz     Val( 2p)     0.94837      -0.12274
    61    C    2  pz     Ryd( 4p)     0.00084       1.02675
    62    C    2  pz     Ryd( 3p)     0.00003       0.87745
    63    C    2  pz     Ryd( 5p)     0.00005       1.38377
    64    C    2  dxy    Ryd( 3d)     0.00175       2.70674
    65    C    2  dxy    Ryd( 5d)     0.00013       3.88656
    66    C    2  dxy    Ryd( 4d)     0.00008       3.34993
    67    C    2  dxz    Ryd( 3d)     0.00050       1.48569
    68    C    2  dxz    Ryd( 5d)     0.00004       3.10353
    69    C    2  dxz    Ryd( 4d)     0.00002       1.86696
    70    C    2  dyz    Ryd( 3d)     0.00032       1.38771
    71    C    2  dyz    Ryd( 5d)     0.00005       3.17700
    72    C    2  dyz    Ryd( 4d)     0.00004       1.54267
    73    C    2  dx2y2  Ryd( 4d)     0.00204       3.39186
    74    C    2  dx2y2  Ryd( 5d)     0.00019       4.11981
    75    C    2  dx2y2  Ryd( 3d)     0.00008       2.72010
    76    C    2  dz2    Ryd( 3d)     0.00098       1.87046
    77    C    2  dz2    Ryd( 4d)     0.00012       3.95715
    78    C    2  dz2    Ryd( 5d)     0.00006       4.45568
    79    C    2  f(0)   Ryd( 4f)     0.00012       1.52018
    80    C    2  f(0)   Ryd( 5f)     0.00009       3.34006
    81    C    2  f(C1)  Ryd( 4f)     0.00045       2.02677
    82    C    2  f(C1)  Ryd( 5f)     0.00022       3.60461
    83    C    2  f(S1)  Ryd( 4f)     0.00050       1.84297
    84    C    2  f(S1)  Ryd( 5f)     0.00013       3.47378
    85    C    2  f(C2)  Ryd( 4f)     0.00020       1.60210
    86    C    2  f(C2)  Ryd( 5f)     0.00004       3.35031
    87    C    2  f(S2)  Ryd( 4f)     0.00019       1.56530
    88    C    2  f(S2)  Ryd( 5f)     0.00005       3.37571
    89    C    2  f(C3)  Ryd( 4f)     0.00039       2.71842
    90    C    2  f(C3)  Ryd( 5f)     0.00012       3.94452
    91    C    2  f(S3)  Ryd( 4f)     0.00104       2.08279
    92    C    2  f(S3)  Ryd( 5f)     0.00023       4.24074
 
    93    C    3  S      Cor( 1S)     1.99912     -10.37842
    94    C    3  S      Val( 2S)     0.94624      -0.19227
    95    C    3  S      Ryd( 4S)     0.00151       1.87735
    96    C    3  S      Ryd( 5S)     0.00006       2.87091
    97    C    3  S      Ryd( 3S)     0.00002       1.81762
    98    C    3  px     Val( 2p)     1.09103      -0.07274
    99    C    3  px     Ryd( 5p)     0.00416       1.73971
   100    C    3  px     Ryd( 3p)     0.00005       1.21675
   101    C    3  px     Ryd( 4p)     0.00002       1.39408
   102    C    3  py     Val( 2p)     1.15678      -0.08407
   103    C    3  py     Ryd( 5p)     0.00487       1.71839
   104    C    3  py     Ryd( 3p)     0.00003       1.60624
   105    C    3  py     Ryd( 4p)     0.00004       1.63098
   106    C    3  pz     Val( 2p)     1.00185      -0.12542
   107    C    3  pz     Ryd( 3p)     0.00079       1.01840
   108    C    3  pz     Ryd( 4p)     0.00000       1.08423
   109    C    3  pz     Ryd( 5p)     0.00002       1.10119
   110    C    3  dxy    Ryd( 4d)     0.00207       2.63749
   111    C    3  dxy    Ryd( 5d)     0.00023       3.61229
   112    C    3  dxy    Ryd( 3d)     0.00006       2.59751
   113    C    3  dxz    Ryd( 3d)     0.00035       1.43961
   114    C    3  dxz    Ryd( 5d)     0.00001       2.90517
   115    C    3  dxz    Ryd( 4d)     0.00001       1.63255
   116    C    3  dyz    Ryd( 3d)     0.00030       1.45449
   117    C    3  dyz    Ryd( 5d)     0.00004       2.92234
   118    C    3  dyz    Ryd( 4d)     0.00002       1.51535
   119    C    3  dx2y2  Ryd( 4d)     0.00206       3.12481
   120    C    3  dx2y2  Ryd( 5d)     0.00018       3.78962
   121    C    3  dx2y2  Ryd( 3d)     0.00005       2.11440
   122    C    3  dz2    Ryd( 3d)     0.00100       1.82174
   123    C    3  dz2    Ryd( 5d)     0.00006       4.11066
   124    C    3  dz2    Ryd( 4d)     0.00011       3.34759
   125    C    3  f(0)   Ryd( 5f)     0.00012       3.48826
   126    C    3  f(0)   Ryd( 4f)     0.00001       2.15612
   127    C    3  f(C1)  Ryd( 5f)     0.00024       3.77631
   128    C    3  f(C1)  Ryd( 4f)     0.00001       2.67709
   129    C    3  f(S1)  Ryd( 5f)     0.00022       3.70853
   130    C    3  f(S1)  Ryd( 4f)     0.00002       2.79041
   131    C    3  f(C2)  Ryd( 5f)     0.00001       3.60558
   132    C    3  f(C2)  Ryd( 4f)     0.00000       2.24046
   133    C    3  f(S2)  Ryd( 5f)     0.00001       3.64814
   134    C    3  f(S2)  Ryd( 4f)     0.00002       2.33432
   135    C    3  f(C3)  Ryd( 4f)     0.00014       4.24768
   136    C    3  f(C3)  Ryd( 5f)     0.00005       5.75487
   137    C    3  f(S3)  Ryd( 5f)     0.00007       4.39315
   138    C    3  f(S3)  Ryd( 4f)     0.00011       3.93493
 
   139    C    4  S      Cor( 1S)     1.99911     -10.38262
   140    C    4  S      Val( 2S)     0.95023      -0.19896
   141    C    4  S      Ryd( 4S)     0.00137       1.97058
   142    C    4  S      Ryd( 5S)     0.00006       2.76497
   143    C    4  S      Ryd( 3S)     0.00002       1.86526
   144    C    4  px     Val( 2p)     1.18029      -0.08785
   145    C    4  px     Ryd( 4p)     0.00554       1.66754
   146    C    4  px     Ryd( 3p)     0.00003       1.56682
   147    C    4  px     Ryd( 5p)     0.00001       1.72968
   148    C    4  py     Val( 2p)     1.06789      -0.07001
   149    C    4  py     Ryd( 5p)     0.00391       1.73200
   150    C    4  py     Ryd( 3p)     0.00001       1.17479
   151    C    4  py     Ryd( 4p)     0.00002       1.24172
   152    C    4  pz     Val( 2p)     0.95354      -0.12350
   153    C    4  pz     Ryd( 3p)     0.00065       1.01532
   154    C    4  pz     Ryd( 4p)     0.00001       1.02223
   155    C    4  pz     Ryd( 5p)     0.00000       1.14044
   156    C    4  dxy    Ryd( 4d)     0.00216       3.47456
   157    C    4  dxy    Ryd( 5d)     0.00022       3.91168
   158    C    4  dxy    Ryd( 3d)     0.00004       1.49049
   159    C    4  dxz    Ryd( 4d)     0.00029       1.40990
   160    C    4  dxz    Ryd( 5d)     0.00004       3.06891
   161    C    4  dxz    Ryd( 3d)     0.00003       1.22651
   162    C    4  dyz    Ryd( 3d)     0.00052       1.42129
   163    C    4  dyz    Ryd( 5d)     0.00001       2.99878
   164    C    4  dyz    Ryd( 4d)     0.00000       1.47515
   165    C    4  dx2y2  Ryd( 3d)     0.00191       2.19269
   166    C    4  dx2y2  Ryd( 5d)     0.00017       3.61255
   167    C    4  dx2y2  Ryd( 4d)     0.00004       2.76731
   168    C    4  dz2    Ryd( 3d)     0.00098       1.87836
   169    C    4  dz2    Ryd( 5d)     0.00004       4.08162
   170    C    4  dz2    Ryd( 4d)     0.00012       3.49987
   171    C    4  f(0)   Ryd( 5f)     0.00010       3.50923
   172    C    4  f(0)   Ryd( 4f)     0.00001       2.03428
   173    C    4  f(C1)  Ryd( 5f)     0.00018       3.70074
   174    C    4  f(C1)  Ryd( 4f)     0.00001       2.61332
   175    C    4  f(S1)  Ryd( 5f)     0.00025       3.76567
   176    C    4  f(S1)  Ryd( 4f)     0.00001       2.78131
   177    C    4  f(C2)  Ryd( 5f)     0.00001       3.68640
   178    C    4  f(C2)  Ryd( 4f)     0.00002       2.04539
   179    C    4  f(S2)  Ryd( 5f)     0.00001       3.59690
   180    C    4  f(S2)  Ryd( 4f)     0.00000       2.26377
   181    C    4  f(C3)  Ryd( 4f)     0.00015       4.31262
   182    C    4  f(C3)  Ryd( 5f)     0.00006       4.98999
   183    C    4  f(S3)  Ryd( 5f)     0.00006       4.37164
   184    C    4  f(S3)  Ryd( 4f)     0.00014       3.83452
 
   185    C    5  S      Cor( 1S)     1.99912     -10.37858
   186    C    5  S      Val( 2S)     0.94729      -0.19237
   187    C    5  S      Ryd( 3S)     0.00145       1.88170
   188    C    5  S      Ryd( 5S)     0.00006       2.84517
   189    C    5  S      Ryd( 4S)     0.00002       1.88394
   190    C    5  px     Val( 2p)     1.10032      -0.07366
   191    C    5  px     Ryd( 5p)     0.00431       1.73473
   192    C    5  px     Ryd( 4p)     0.00002       1.40184
   193    C    5  px     Ryd( 3p)     0.00005       1.29034
   194    C    5  py     Val( 2p)     1.14738      -0.08204
   195    C    5  py     Ryd( 5p)     0.00455       1.72556
   196    C    5  py     Ryd( 3p)     0.00003       1.56612
   197    C    5  py     Ryd( 4p)     0.00002       1.61323
   198    C    5  pz     Val( 2p)     0.99974      -0.12488
   199    C    5  pz     Ryd( 3p)     0.00072       1.02218
   200    C    5  pz     Ryd( 4p)     0.00003       1.07088
   201    C    5  pz     Ryd( 5p)     0.00001       1.12844
   202    C    5  dxy    Ryd( 3d)     0.00203       2.46311
   203    C    5  dxy    Ryd( 5d)     0.00021       3.51332
   204    C    5  dxy    Ryd( 4d)     0.00005       2.85514
   205    C    5  dxz    Ryd( 3d)     0.00039       1.43973
   206    C    5  dxz    Ryd( 5d)     0.00001       2.85746
   207    C    5  dxz    Ryd( 4d)     0.00002       1.66921
   208    C    5  dyz    Ryd( 3d)     0.00032       1.46323
   209    C    5  dyz    Ryd( 5d)     0.00004       2.86517
   210    C    5  dyz    Ryd( 4d)     0.00001       1.60308
   211    C    5  dx2y2  Ryd( 4d)     0.00213       3.28268
   212    C    5  dx2y2  Ryd( 5d)     0.00020       3.73625
   213    C    5  dx2y2  Ryd( 3d)     0.00005       2.07250
   214    C    5  dz2    Ryd( 3d)     0.00098       1.81890
   215    C    5  dz2    Ryd( 5d)     0.00006       4.13181
   216    C    5  dz2    Ryd( 4d)     0.00010       3.36874
   217    C    5  f(0)   Ryd( 5f)     0.00013       3.48643
   218    C    5  f(0)   Ryd( 4f)     0.00001       2.15968
   219    C    5  f(C1)  Ryd( 5f)     0.00023       3.76134
   220    C    5  f(C1)  Ryd( 4f)     0.00001       2.65395
   221    C    5  f(S1)  Ryd( 5f)     0.00024       3.71148
   222    C    5  f(S1)  Ryd( 4f)     0.00002       2.82008
   223    C    5  f(C2)  Ryd( 5f)     0.00001       3.58748
   224    C    5  f(C2)  Ryd( 4f)     0.00000       2.27856
   225    C    5  f(S2)  Ryd( 5f)     0.00001       3.66545
   226    C    5  f(S2)  Ryd( 4f)     0.00002       2.30654
   227    C    5  f(C3)  Ryd( 4f)     0.00014       4.24586
   228    C    5  f(C3)  Ryd( 5f)     0.00005       5.72436
   229    C    5  f(S3)  Ryd( 5f)     0.00008       4.38521
   230    C    5  f(S3)  Ryd( 4f)     0.00010       3.95142
 
   231    C    6  S      Cor( 1S)     1.99909     -10.38353
   232    C    6  S      Val( 2S)     0.94238      -0.18087
   233    C    6  S      Ryd( 4S)     0.00154       1.96219
   234    C    6  S      Ryd( 5S)     0.00011       2.83324
   235    C    6  S      Ryd( 3S)     0.00002       1.73406
   236    C    6  px     Val( 2p)     1.07665      -0.06408
   237    C    6  px     Ryd( 4p)     0.00382       1.95327
   238    C    6  px     Ryd( 5p)     0.00008       2.16294
   239    C    6  px     Ryd( 3p)     0.00009       1.24432
   240    C    6  py     Val( 2p)     1.14872      -0.06998
   241    C    6  py     Ryd( 4p)     0.00504       1.82703
   242    C    6  py     Ryd( 5p)     0.00004       2.07880
   243    C    6  py     Ryd( 3p)     0.00005       1.56842
   244    C    6  pz     Val( 2p)     0.93398      -0.11796
   245    C    6  pz     Ryd( 4p)     0.00072       1.03573
   246    C    6  pz     Ryd( 5p)     0.00005       1.34595
   247    C    6  pz     Ryd( 3p)     0.00003       0.90604
   248    C    6  dxy    Ryd( 4d)     0.00176       2.99275
   249    C    6  dxy    Ryd( 5d)     0.00016       4.08002
   250    C    6  dxy    Ryd( 3d)     0.00008       2.87132
   251    C    6  dxz    Ryd( 3d)     0.00040       1.48529
   252    C    6  dxz    Ryd( 5d)     0.00003       3.19122
   253    C    6  dxz    Ryd( 4d)     0.00003       1.74924
   254    C    6  dyz    Ryd( 3d)     0.00028       1.40799
   255    C    6  dyz    Ryd( 5d)     0.00005       3.25293
   256    C    6  dyz    Ryd( 4d)     0.00004       1.41253
   257    C    6  dx2y2  Ryd( 4d)     0.00207       3.18872
   258    C    6  dx2y2  Ryd( 5d)     0.00020       4.20912
   259    C    6  dx2y2  Ryd( 3d)     0.00008       2.73344
   260    C    6  dz2    Ryd( 3d)     0.00093       1.92257
   261    C    6  dz2    Ryd( 4d)     0.00010       3.92469
   262    C    6  dz2    Ryd( 5d)     0.00006       4.42768
   263    C    6  f(0)   Ryd( 4f)     0.00009       1.47838
   264    C    6  f(0)   Ryd( 5f)     0.00010       3.38545
   265    C    6  f(C1)  Ryd( 4f)     0.00038       1.99803
   266    C    6  f(C1)  Ryd( 5f)     0.00026       3.65559
   267    C    6  f(S1)  Ryd( 4f)     0.00049       1.79071
   268    C    6  f(S1)  Ryd( 5f)     0.00014       3.51752
   269    C    6  f(C2)  Ryd( 4f)     0.00017       1.58687
   270    C    6  f(C2)  Ryd( 5f)     0.00004       3.38008
   271    C    6  f(S2)  Ryd( 4f)     0.00020       1.49943
   272    C    6  f(S2)  Ryd( 5f)     0.00004       3.42776
   273    C    6  f(C3)  Ryd( 4f)     0.00043       2.69873
   274    C    6  f(C3)  Ryd( 5f)     0.00014       4.01696
   275    C    6  f(S3)  Ryd( 4f)     0.00109       2.03032
   276    C    6  f(S3)  Ryd( 5f)     0.00020       4.22571
 
   277    C    7  S      Cor( 1S)     1.99905     -10.53594
   278    C    7  S      Val( 2S)     0.78077      -0.10224
   279    C    7  S      Ryd( 4S)     0.00359       2.02730
   280    C    7  S      Ryd( 3S)     0.00012       1.99350
   281    C    7  S      Ryd( 5S)     0.00007       2.62274
   282    C    7  px     Val( 2p)     0.91336      -0.04745
   283    C    7  px     Ryd( 5p)     0.00566       1.59305
   284    C    7  px     Ryd( 4p)     0.00026       1.23767
   285    C    7  px     Ryd( 3p)     0.00001       1.19178
   286    C    7  py     Val( 2p)     0.72631      -0.01747
   287    C    7  py     Ryd( 4p)     0.01303       1.61576
   288    C    7  py     Ryd( 3p)     0.00008       1.34121
   289    C    7  py     Ryd( 5p)     0.00007       1.74707
   290    C    7  pz     Val( 2p)     0.75344      -0.12137
   291    C    7  pz     Ryd( 5p)     0.00062       1.14020
   292    C    7  pz     Ryd( 3p)     0.00010       0.78489
   293    C    7  pz     Ryd( 4p)     0.00003       0.93598
   294    C    7  dxy    Ryd( 3d)     0.00066       2.95373
   295    C    7  dxy    Ryd( 4d)     0.00037       3.23048
   296    C    7  dxy    Ryd( 5d)     0.00005       3.38575
   297    C    7  dxz    Ryd( 3d)     0.00138       2.12964
   298    C    7  dxz    Ryd( 5d)     0.00005       2.31234
   299    C    7  dxz    Ryd( 4d)     0.00005       2.26530
   300    C    7  dyz    Ryd( 3d)     0.00199       2.17675
   301    C    7  dyz    Ryd( 4d)     0.00005       2.36916
   302    C    7  dyz    Ryd( 5d)     0.00004       2.48048
   303    C    7  dx2y2  Ryd( 4d)     0.00237       2.93169
   304    C    7  dx2y2  Ryd( 3d)     0.00017       2.78825
   305    C    7  dx2y2  Ryd( 5d)     0.00008       3.74002
   306    C    7  dz2    Ryd( 3d)     0.00051       2.83713
   307    C    7  dz2    Ryd( 4d)     0.00059       3.31970
   308    C    7  dz2    Ryd( 5d)     0.00009       3.58189
   309    C    7  f(0)   Ryd( 5f)     0.00011       3.49053
   310    C    7  f(0)   Ryd( 4f)     0.00002       2.47283
   311    C    7  f(C1)  Ryd( 5f)     0.00015       3.71045
   312    C    7  f(C1)  Ryd( 4f)     0.00002       3.13913
   313    C    7  f(S1)  Ryd( 5f)     0.00007       3.64054
   314    C    7  f(S1)  Ryd( 4f)     0.00004       3.37527
   315    C    7  f(C2)  Ryd( 5f)     0.00000       3.40254
   316    C    7  f(C2)  Ryd( 4f)     0.00006       2.59789
   317    C    7  f(S2)  Ryd( 5f)     0.00003       3.60480
   318    C    7  f(S2)  Ryd( 4f)     0.00001       2.92332
   319    C    7  f(C3)  Ryd( 4f)     0.00007       4.59163
   320    C    7  f(C3)  Ryd( 5f)     0.00003       8.41009
   321    C    7  f(S3)  Ryd( 5f)     0.00007       4.54244
   322    C    7  f(S3)  Ryd( 4f)     0.00003       4.15041
 
   323    O    8  S      Cor( 1S)     1.99979     -19.32576
   324    O    8  S      Val( 2S)     1.70854      -0.99615
   325    O    8  S      Ryd( 4S)     0.00064       2.68562
   326    O    8  S      Ryd( 3S)     0.00016       1.96533
   327    O    8  S      Ryd( 5S)     0.00001       8.43460
   328    O    8  px     Val( 2p)     1.79241      -0.33520
   329    O    8  px     Ryd( 4p)     0.00123       1.39482
   330    O    8  px     Ryd( 3p)     0.00011       0.95337
   331    O    8  px     Ryd( 5p)     0.00003       4.57777
   332    O    8  py     Val( 2p)     1.62235      -0.33052
   333    O    8  py     Ryd( 4p)     0.00112       1.47469
   334    O    8  py     Ryd( 3p)     0.00010       0.80896
   335    O    8  py     Ryd( 5p)     0.00004       5.15006
   336    O    8  pz     Val( 2p)     1.45615      -0.28497
   337    O    8  pz     Ryd( 4p)     0.00055       1.04635
   338    O    8  pz     Ryd( 3p)     0.00001       0.62812
   339    O    8  pz     Ryd( 5p)     0.00001       4.06106
   340    O    8  dxy    Ryd( 3d)     0.00716       2.06530
   341    O    8  dxy    Ryd( 4d)     0.00008       2.91016
   342    O    8  dxy    Ryd( 5d)     0.00003       6.77523
   343    O    8  dxz    Ryd( 3d)     0.00165       1.48013
   344    O    8  dxz    Ryd( 4d)     0.00001       1.51988
   345    O    8  dxz    Ryd( 5d)     0.00001       6.59370
   346    O    8  dyz    Ryd( 4d)     0.00486       1.57021
   347    O    8  dyz    Ryd( 3d)     0.00003       1.53138
   348    O    8  dyz    Ryd( 5d)     0.00002       6.57404
   349    O    8  dx2y2  Ryd( 3d)     0.00586       1.88028
   350    O    8  dx2y2  Ryd( 4d)     0.00007       2.09120
   351    O    8  dx2y2  Ryd( 5d)     0.00004       6.71917
   352    O    8  dz2    Ryd( 3d)     0.00270       1.67005
   353    O    8  dz2    Ryd( 4d)     0.00008       2.33855
   354    O    8  dz2    Ryd( 5d)     0.00000       6.67089
   355    O    8  f(0)   Ryd( 4f)     0.00011       3.17898
   356    O    8  f(0)   Ryd( 5f)     0.00000       5.46621
   357    O    8  f(C1)  Ryd( 4f)     0.00007       3.34211
   358    O    8  f(C1)  Ryd( 5f)     0.00002       5.56554
   359    O    8  f(S1)  Ryd( 4f)     0.00011       3.66808
   360    O    8  f(S1)  Ryd( 5f)     0.00001       5.75524
   361    O    8  f(C2)  Ryd( 4f)     0.00010       3.14753
   362    O    8  f(C2)  Ryd( 5f)     0.00002       5.67351
   363    O    8  f(S2)  Ryd( 4f)     0.00020       3.21624
   364    O    8  f(S2)  Ryd( 5f)     0.00000       5.59228
   365    O    8  f(C3)  Ryd( 4f)     0.00039       4.11458
   366    O    8  f(C3)  Ryd( 5f)     0.00001       6.05281
   367    O    8  f(S3)  Ryd( 4f)     0.00036       3.64458
   368    O    8  f(S3)  Ryd( 5f)     0.00003       5.92274
 
   369    O    9  S      Cor( 1S)     1.99978     -19.45947
   370    O    9  S      Val( 2S)     1.67200      -1.02844
   371    O    9  S      Ryd( 3S)     0.00040       1.49122
   372    O    9  S      Ryd( 4S)     0.00008       2.97901
   373    O    9  S      Ryd( 5S)     0.00001       9.01466
   374    O    9  px     Val( 2p)     1.47686      -0.35819
   375    O    9  px     Ryd( 3p)     0.00067       1.20791
   376    O    9  px     Ryd( 4p)     0.00010       1.41232
   377    O    9  px     Ryd( 5p)     0.00003       4.69764
   378    O    9  py     Val( 2p)     1.69094      -0.39958
   379    O    9  py     Ryd( 3p)     0.00081       1.06512
   380    O    9  py     Ryd( 4p)     0.00008       1.11159
   381    O    9  py     Ryd( 5p)     0.00005       4.44571
   382    O    9  pz     Val( 2p)     1.84808      -0.41089
   383    O    9  pz     Ryd( 4p)     0.00103       0.87954
   384    O    9  pz     Ryd( 3p)     0.00001       0.85853
   385    O    9  pz     Ryd( 5p)     0.00000       3.81070
   386    O    9  dxy    Ryd( 3d)     0.00533       1.97287
   387    O    9  dxy    Ryd( 4d)     0.00015       2.45654
   388    O    9  dxy    Ryd( 5d)     0.00004       6.73880
   389    O    9  dxz    Ryd( 3d)     0.00040       1.21425
   390    O    9  dxz    Ryd( 4d)     0.00008       1.96765
   391    O    9  dxz    Ryd( 5d)     0.00001       6.39948
   392    O    9  dyz    Ryd( 3d)     0.00409       1.34537
   393    O    9  dyz    Ryd( 4d)     0.00003       1.72333
   394    O    9  dyz    Ryd( 5d)     0.00003       6.41675
   395    O    9  dx2y2  Ryd( 3d)     0.00410       1.81057
   396    O    9  dx2y2  Ryd( 4d)     0.00007       2.18221
   397    O    9  dx2y2  Ryd( 5d)     0.00006       6.81690
   398    O    9  dz2    Ryd( 3d)     0.00284       1.53717
   399    O    9  dz2    Ryd( 4d)     0.00012       2.36435
   400    O    9  dz2    Ryd( 5d)     0.00001       6.63974
   401    O    9  f(0)   Ryd( 4f)     0.00049       2.81494
   402    O    9  f(0)   Ryd( 5f)     0.00001       5.88772
   403    O    9  f(C1)  Ryd( 4f)     0.00021       3.44020
   404    O    9  f(C1)  Ryd( 5f)     0.00001       6.19042
   405    O    9  f(S1)  Ryd( 4f)     0.00014       3.31215
   406    O    9  f(S1)  Ryd( 5f)     0.00001       6.07696
   407    O    9  f(C2)  Ryd( 4f)     0.00006       2.88000
   408    O    9  f(C2)  Ryd( 5f)     0.00001       6.06215
   409    O    9  f(S2)  Ryd( 4f)     0.00006       2.89719
   410    O    9  f(S2)  Ryd( 5f)     0.00001       5.93263
   411    O    9  f(C3)  Ryd( 4f)     0.00010       4.49051
   412    O    9  f(C3)  Ryd( 5f)     0.00006       6.53772
   413    O    9  f(S3)  Ryd( 4f)     0.00009       3.80136
   414    O    9  f(S3)  Ryd( 5f)     0.00002       6.41052
 
   415    H   10  S      Val( 1S)     0.76980       0.04582
   416    H   10  S      Ryd( 4S)     0.00043       1.96596
   417    H   10  S      Ryd( 2S)     0.00012       0.83902
   418    H   10  S      Ryd( 3S)     0.00003       1.57027
   419    H   10  px     Ryd( 2p)     0.00060       0.98822
   420    H   10  px     Ryd( 4p)     0.00009       4.18106
   421    H   10  px     Ryd( 3p)     0.00008       3.20976
   422    H   10  py     Ryd( 2p)     0.00066       0.92779
   423    H   10  py     Ryd( 4p)     0.00017       4.23284
   424    H   10  py     Ryd( 3p)     0.00005       4.07255
   425    H   10  pz     Ryd( 2p)     0.00020       0.61731
   426    H   10  pz     Ryd( 4p)     0.00003       3.95444
   427    H   10  pz     Ryd( 3p)     0.00004       2.05687
   428    H   10  dxy    Ryd( 3d)     0.00009       2.18126
   429    H   10  dxy    Ryd( 4d)     0.00003       4.49000
   430    H   10  dxz    Ryd( 3d)     0.00003       1.60088
   431    H   10  dxz    Ryd( 4d)     0.00000       3.73345
   432    H   10  dyz    Ryd( 3d)     0.00002       1.67080
   433    H   10  dyz    Ryd( 4d)     0.00001       3.94401
   434    H   10  dx2y2  Ryd( 3d)     0.00004       2.22378
   435    H   10  dx2y2  Ryd( 4d)     0.00003       4.52419
   436    H   10  dz2    Ryd( 3d)     0.00004       2.27625
   437    H   10  dz2    Ryd( 4d)     0.00002       4.18489
 
   438    H   11  S      Val( 1S)     0.78558       0.03565
   439    H   11  S      Ryd( 4S)     0.00034       2.03495
   440    H   11  S      Ryd( 2S)     0.00014       0.84552
   441    H   11  S      Ryd( 3S)     0.00001       1.26230
   442    H   11  px     Ryd( 2p)     0.00040       1.03493
   443    H   11  px     Ryd( 4p)     0.00007       3.75148
   444    H   11  px     Ryd( 3p)     0.00008       2.73674
   445    H   11  py     Ryd( 2p)     0.00079       1.09468
   446    H   11  py     Ryd( 4p)     0.00008       4.84728
   447    H   11  py     Ryd( 3p)     0.00006       3.04023
   448    H   11  pz     Ryd( 2p)     0.00019       0.85016
   449    H   11  pz     Ryd( 4p)     0.00009       3.01139
   450    H   11  pz     Ryd( 3p)     0.00001       2.34124
   451    H   11  dxy    Ryd( 3d)     0.00010       2.22268
   452    H   11  dxy    Ryd( 4d)     0.00003       4.28351
   453    H   11  dxz    Ryd( 3d)     0.00001       1.69395
   454    H   11  dxz    Ryd( 4d)     0.00000       3.42889
   455    H   11  dyz    Ryd( 3d)     0.00001       1.83384
   456    H   11  dyz    Ryd( 4d)     0.00000       3.72870
   457    H   11  dx2y2  Ryd( 3d)     0.00005       2.07963
   458    H   11  dx2y2  Ryd( 4d)     0.00001       4.33435
   459    H   11  dz2    Ryd( 3d)     0.00002       2.02602
   460    H   11  dz2    Ryd( 4d)     0.00002       3.69059
 
   461    H   12  S      Val( 1S)     0.78618       0.03359
   462    H   12  S      Ryd( 4S)     0.00031       2.03050
   463    H   12  S      Ryd( 2S)     0.00014       0.93491
   464    H   12  S      Ryd( 3S)     0.00001       0.99557
   465    H   12  px     Ryd( 2p)     0.00084       0.98583
   466    H   12  px     Ryd( 3p)     0.00003       4.02607
   467    H   12  px     Ryd( 4p)     0.00013       4.42279
   468    H   12  py     Ryd( 2p)     0.00032       0.94427
   469    H   12  py     Ryd( 3p)     0.00012       2.16970
   470    H   12  py     Ryd( 4p)     0.00002       3.90691
   471    H   12  pz     Ryd( 2p)     0.00012       0.76959
   472    H   12  pz     Ryd( 3p)     0.00005       1.71560
   473    H   12  pz     Ryd( 4p)     0.00005       3.75341
   474    H   12  dxy    Ryd( 3d)     0.00002       1.96157
   475    H   12  dxy    Ryd( 4d)     0.00002       4.33618
   476    H   12  dxz    Ryd( 3d)     0.00001       1.78610
   477    H   12  dxz    Ryd( 4d)     0.00001       3.88790
   478    H   12  dyz    Ryd( 3d)     0.00001       1.55790
   479    H   12  dyz    Ryd( 4d)     0.00000       3.37047
   480    H   12  dx2y2  Ryd( 3d)     0.00015       2.16504
   481    H   12  dx2y2  Ryd( 4d)     0.00002       4.25184
   482    H   12  dz2    Ryd( 3d)     0.00002       1.92865
   483    H   12  dz2    Ryd( 4d)     0.00003       3.72665
 
   484    H   13  S      Val( 1S)     0.78407       0.03697
   485    H   13  S      Ryd( 4S)     0.00032       2.04248
   486    H   13  S      Ryd( 2S)     0.00014       0.87401
   487    H   13  S      Ryd( 3S)     0.00001       1.25051
   488    H   13  px     Ryd( 2p)     0.00045       1.04549
   489    H   13  px     Ryd( 4p)     0.00007       3.93804
   490    H   13  px     Ryd( 3p)     0.00008       2.70497
   491    H   13  py     Ryd( 2p)     0.00069       1.10699
   492    H   13  py     Ryd( 4p)     0.00008       4.69966
   493    H   13  py     Ryd( 3p)     0.00005       2.99053
   494    H   13  pz     Ryd( 2p)     0.00018       0.86360
   495    H   13  pz     Ryd( 4p)     0.00009       3.11038
   496    H   13  pz     Ryd( 3p)     0.00001       2.22828
   497    H   13  dxy    Ryd( 3d)     0.00012       2.22523
   498    H   13  dxy    Ryd( 4d)     0.00003       4.28990
   499    H   13  dxz    Ryd( 3d)     0.00001       1.68857
   500    H   13  dxz    Ryd( 4d)     0.00001       3.49479
   501    H   13  dyz    Ryd( 3d)     0.00001       1.79710
   502    H   13  dyz    Ryd( 4d)     0.00000       3.71242
   503    H   13  dx2y2  Ryd( 3d)     0.00003       2.03468
   504    H   13  dx2y2  Ryd( 4d)     0.00001       4.36599
   505    H   13  dz2    Ryd( 3d)     0.00002       2.00783
   506    H   13  dz2    Ryd( 4d)     0.00002       3.71000
 
   507    H   14  S      Val( 1S)     0.76065       0.05546
   508    H   14  S      Ryd( 4S)     0.00043       1.99423
   509    H   14  S      Ryd( 2S)     0.00013       0.77555
   510    H   14  S      Ryd( 3S)     0.00004       1.59714
   511    H   14  px     Ryd( 2p)     0.00049       0.99819
   512    H   14  px     Ryd( 4p)     0.00008       4.16365
   513    H   14  px     Ryd( 3p)     0.00010       3.11789
   514    H   14  py     Ryd( 2p)     0.00073       0.94283
   515    H   14  py     Ryd( 3p)     0.00017       4.20846
   516    H   14  py     Ryd( 4p)     0.00006       4.23451
   517    H   14  pz     Ryd( 2p)     0.00013       0.64514
   518    H   14  pz     Ryd( 4p)     0.00002       3.93522
   519    H   14  pz     Ryd( 3p)     0.00004       2.07654
   520    H   14  dxy    Ryd( 3d)     0.00007       2.19605
   521    H   14  dxy    Ryd( 4d)     0.00002       4.43747
   522    H   14  dxz    Ryd( 3d)     0.00002       1.67008
   523    H   14  dxz    Ryd( 4d)     0.00001       3.62347
   524    H   14  dyz    Ryd( 3d)     0.00002       1.77272
   525    H   14  dyz    Ryd( 4d)     0.00002       3.88596
   526    H   14  dx2y2  Ryd( 3d)     0.00005       2.30573
   527    H   14  dx2y2  Ryd( 4d)     0.00002       4.46836
   528    H   14  dz2    Ryd( 3d)     0.00004       2.27598
   529    H   14  dz2    Ryd( 4d)     0.00002       4.15414
 
   530    H   15  S      Val( 1S)     0.49088       0.14023
   531    H   15  S      Ryd( 4S)     0.00101       1.81185
   532    H   15  S      Ryd( 3S)     0.00015       1.74697
   533    H   15  S      Ryd( 2S)     0.00012       0.49637
   534    H   15  px     Ryd( 2p)     0.00023       2.96068
   535    H   15  px     Ryd( 4p)     0.00039       3.48390
   536    H   15  px     Ryd( 3p)     0.00002       3.08922
   537    H   15  py     Ryd( 2p)     0.00025       2.02933
   538    H   15  py     Ryd( 3p)     0.00003       2.88432
   539    H   15  py     Ryd( 4p)     0.00002       2.95695
   540    H   15  pz     Ryd( 2p)     0.00053       1.70819
   541    H   15  pz     Ryd( 3p)     0.00004       2.63346
   542    H   15  pz     Ryd( 4p)     0.00001       2.73839
   543    H   15  dxy    Ryd( 3d)     0.00003       1.35284
   544    H   15  dxy    Ryd( 4d)     0.00001       4.41691
   545    H   15  dxz    Ryd( 3d)     0.00011       1.11116
   546    H   15  dxz    Ryd( 4d)     0.00000       4.26892
   547    H   15  dyz    Ryd( 3d)     0.00004       1.13659
   548    H   15  dyz    Ryd( 4d)     0.00000       3.81834
   549    H   15  dx2y2  Ryd( 3d)     0.00007       1.75811
   550    H   15  dx2y2  Ryd( 4d)     0.00001       4.65685
   551    H   15  dz2    Ryd( 3d)     0.00010       1.61139
   552    H   15  dz2    Ryd( 4d)     0.00001       4.07354

 WARNING:  1 low occupancy (<1.9990e) core orbital  found on  C    1

 WARNING:  Population inversion found on atom  C    1
           Population inversion found on atom  C    2
           Population inversion found on atom  C    3
           Population inversion found on atom  C    4
           Population inversion found on atom  C    5
           Population inversion found on atom  C    6
           Population inversion found on atom  C    7
           Population inversion found on atom  O    8
           Population inversion found on atom  O    9
           Population inversion found on atom  H   10
           Population inversion found on atom  H   11
           Population inversion found on atom  H   12
           Population inversion found on atom  H   13
           Population inversion found on atom  H   14
           Population inversion found on atom  H   15


 Summary of Natural Population Analysis:                  
                                                          
                                       Natural Population 
                Natural  -----------------------------------------------
    Atom  No    Charge         Core      Valence    Rydberg      Total
 -----------------------------------------------------------------------
      C    1   -0.22696      1.99884     4.20167    0.02646     6.22696
      C    2   -0.13757      1.99911     4.11737    0.02109     6.13757
      C    3   -0.21418      1.99912     4.19590    0.01916     6.21418
      C    4   -0.17030      1.99911     4.15194    0.01926     6.17030
      C    5   -0.21277      1.99912     4.19472    0.01893     6.21277
      C    6   -0.12241      1.99909     4.10173    0.02159     6.12241
      C    7    0.79427      1.99905     3.17388    0.03280     5.20573
      O    8   -0.60729      1.99979     6.57945    0.02806     8.60729
      O    9   -0.70955      1.99978     6.68787    0.02190     8.70955
      H   10    0.22740      0.00000     0.76980    0.00280     0.77260
      H   11    0.21189      0.00000     0.78558    0.00253     0.78811
      H   12    0.21140      0.00000     0.78618    0.00242     0.78860
      H   13    0.21348      0.00000     0.78407    0.00245     0.78652
      H   14    0.23666      0.00000     0.76065    0.00269     0.76334
      H   15    0.50594      0.00000     0.49088    0.00318     0.49406
 =======================================================================
   * Total *    0.00000     17.99300    45.78170    0.22530    64.00000

                                 Natural Population      
 --------------------------------------------------------
   Core                      17.99300 ( 99.9611% of  18)
   Valence                   45.78170 ( 99.5254% of  46)
   Natural Minimal Basis     63.77470 ( 99.6480% of  64)
   Natural Rydberg Basis      0.22530 (  0.3520% of  64)
 --------------------------------------------------------

    Atom  No          Natural Electron Configuration
 ----------------------------------------------------------------------------
      C    1      [core]2S( 0.89)2p( 3.31)5p( 0.01)4f( 0.01)
      C    2      [core]2S( 0.94)2p( 3.18)4p( 0.01)
      C    3      [core]2S( 0.95)2p( 3.25)5p( 0.01)
      C    4      [core]2S( 0.95)2p( 3.20)4p( 0.01)
      C    5      [core]2S( 0.95)2p( 3.25)5p( 0.01)
      C    6      [core]2S( 0.94)2p( 3.16)4p( 0.01)
      C    7      [core]2S( 0.78)2p( 2.39)4p( 0.01)5p( 0.01)
      O    8      [core]2S( 1.71)2p( 4.87)3d( 0.02)4d( 0.01)
      O    9      [core]2S( 1.67)2p( 5.02)3d( 0.02)
      H   10            1S( 0.77)
      H   11            1S( 0.79)
      H   12            1S( 0.79)
      H   13            1S( 0.78)
      H   14            1S( 0.76)
      H   15            1S( 0.49)


 NATURAL BOND ORBITAL ANALYSIS:

                       Occupancies       Lewis Structure    Low   High
           Occ.    -------------------  -----------------   occ   occ
  Cycle   Thresh.   Lewis   Non-Lewis     CR  BD  3C  LP    (L)   (NL)   Dev
 =============================================================================
   1(1)    1.90    60.06677   3.93323      9  17   0   6     7      6    0.46
   2(2)    1.90    60.06677   3.93323      9  17   0   6     7      6    0.46
   3(1)    1.80    60.42381   3.57619      9  16   0   7     3      4    0.46
   4(2)    1.80    60.42381   3.57619      9  16   0   7     3      4    0.46
   5(1)    1.70    60.42381   3.57619      9  16   0   7     3      4    0.46
   6(2)    1.70    60.42381   3.57619      9  16   0   7     3      4    0.46
   7(1)    1.60    62.28307   1.71693      9  19   0   4     0      4    0.45
   8(2)    1.60    62.25227   1.74773      9  19   0   4     0      4    0.46
   9(3)    1.60    61.71797   2.28203      9  18   0   5     1      4    0.43
  10(4)    1.60    62.28307   1.71693      9  19   0   4     0      4    0.45
  11(5)    1.60    62.25227   1.74773      9  19   0   4     0      4    0.46
  12(6)    1.60    61.71797   2.28203      9  18   0   5     1      4    0.43
  13(7)    1.60    62.28307   1.71693      9  19   0   4     0      4    0.45
  14(8)    1.60    62.25227   1.74773      9  19   0   4     0      4    0.46
  15(9)    1.60    61.71797   2.28203      9  18   0   5     1      4    0.43
  16(1)    1.50    61.79351   2.20649      9  18   0   5     0      5    0.73
  17(2)    1.50    61.79351   2.20649      9  18   0   5     0      5    0.73
  18(1)    1.60    62.28307   1.71693      9  19   0   4     0      4    0.45
 -----------------------------------------------------------------------------

 Structure accepted: RESONANCE keyword permits strongly delocalized structure

 WARNING:  1 low occupancy (<1.9990e) core orbital  found on  C    1

 --------------------------------------------------------
   Core                     17.99304 ( 99.961% of  18)
   Valence Lewis            44.29003 ( 96.283% of  46)
  ==================       ============================
   Total Lewis              62.28307 ( 97.317% of  64)
  -----------------------------------------------------
   Valence non-Lewis         1.59399 (  2.491% of  64)
   Rydberg non-Lewis         0.12294 (  0.192% of  64)
  ==================       ============================
   Total non-Lewis           1.71693 (  2.683% of  64)
 --------------------------------------------------------


       (Occupancy)   Bond orbital/ Coefficients/ Hybrids
 ---------------------------------------------------------------------------------
     1. (1.96938) BD ( 1) C   1 - C   2  
                ( 52.08%)   0.7216* C   1 s( 33.84%)p 1.95( 66.02%)d 0.00(  0.07%)
                                                  f 0.00(  0.08%)
                                           -0.0001  0.5817 -0.0067  0.0001 -0.0006
                                           -0.3679 -0.0100 -0.0010  0.0006 -0.7243
                                            0.0118 -0.0037  0.0008  0.0000  0.0000
                                            0.0000  0.0000  0.0122  0.0086 -0.0007
                                            0.0000  0.0000  0.0000  0.0000  0.0000
                                            0.0000 -0.0115 -0.0029  0.0002 -0.0169
                                           -0.0009  0.0012  0.0000  0.0000  0.0086
                                            0.0066  0.0162  0.0120  0.0000  0.0000
                                            0.0000  0.0000  0.0151  0.0027 -0.0038
                                            0.0042
                ( 47.92%)   0.6923* C   2 s( 36.28%)p 1.75( 63.55%)d 0.00(  0.11%)
                                                  f 0.00(  0.05%)
                                            0.0001  0.6023 -0.0031  0.0040  0.0015
                                            0.4130 -0.0189  0.0040 -0.0028  0.6815
                                           -0.0011 -0.0011  0.0017  0.0001  0.0000
                                            0.0000  0.0000  0.0229  0.0041  0.0000
                                            0.0000  0.0000  0.0000  0.0000  0.0000
                                            0.0000 -0.0158 -0.0067 -0.0025 -0.0153
                                           -0.0061  0.0011  0.0000  0.0000 -0.0057
                                           -0.0073 -0.0135 -0.0092  0.0000  0.0000
                                            0.0000  0.0000 -0.0096 -0.0062 -0.0057
                                            0.0058
     2. (1.64096) BD ( 2) C   1 - C   2  
                ( 54.84%)   0.7405* C   1 s(  0.00%)p 1.00( 99.89%)d 0.00(  0.03%)
                                                  f 0.00(  0.08%)
                                            0.0000  0.0000  0.0000  0.0000  0.0000
                                            0.0000  0.0000  0.0000  0.0000 -0.0001
                                            0.0000  0.0000  0.0000  0.9994 -0.0015
                                           -0.0087  0.0009  0.0000  0.0000  0.0000
                                            0.0055 -0.0100  0.0008 -0.0122  0.0001
                                           -0.0012  0.0000  0.0000  0.0000  0.0000
                                            0.0000  0.0000 -0.0178 -0.0145  0.0000
                                            0.0000  0.0000  0.0000  0.0133 -0.0016
                                           -0.0093  0.0031  0.0000  0.0000  0.0000
                                            0.0000
                ( 45.16%)   0.6720* C   2 s(  0.00%)p 1.00( 99.92%)d 0.00(  0.04%)
                                                  f 0.00(  0.04%)
                                            0.0000  0.0000  0.0000  0.0000  0.0000
                                            0.0000  0.0000  0.0000  0.0000 -0.0001
                                            0.0000  0.0000  0.0000  0.9996 -0.0016
                                           -0.0007  0.0075  0.0000  0.0000  0.0000
                                            0.0032 -0.0012  0.0024  0.0183  0.0057
                                            0.0021  0.0000  0.0000  0.0000  0.0000
                                            0.0000  0.0000 -0.0088 -0.0100  0.0000
[...]
 --------------------------------------------------------------------------------
 GradGradGradGradGradGradGradGradGradGradGradGradGradGradGradGradGradGrad


 ----------------------------------------------------------------------

 Electric dipole moment (input orientation):
 (Debye = 10**-18 statcoulomb cm , SI units = C m)
                  (au)            (Debye)         (10**-30 SI)
   Tot        0.816774D+00      0.207603D+01      0.692489D+01
   x          0.136464D+00      0.346856D+00      0.115699D+01
   y         -0.753915D-01     -0.191626D+00     -0.639196D+00
   z         -0.801756D+00     -0.203786D+01     -0.679757D+01

 Dipole polarizability, Alpha (input orientation).
 (esu units = cm**3 , SI units = C**2 m**2 J**-1)
 Alpha(0;0):
               (au)            (10**-24 esu)      (10**-40 SI)
   iso        0.875054D+02      0.129670D+02      0.144277D+02
   aniso      0.563676D+02      0.835282D+01      0.929376D+01
   xx         0.887307D+02      0.131485D+02      0.146297D+02
   yx        -0.200470D+02     -0.297065D+01     -0.330530D+01
   yy         0.629050D+02      0.932156D+01      0.103716D+02
   zx         0.791055D+01      0.117222D+01      0.130427D+01
   zy        -0.425525D+01     -0.630563D+00     -0.701595D+00
   zz         0.110880D+03      0.164308D+02      0.182817D+02

 ----------------------------------------------------------------------

 Dipole orientation:
     6          1.55030365         -3.30275698          2.22140453
     6          2.26615574         -2.91273521          4.72085263
     6          0.71863914         -3.75724989          6.65852216
     6         -1.53184676         -4.98475291          6.10097525
     6         -2.24438970         -5.37297042          3.60379713
     6         -0.70488005         -4.53284287          1.66253835
     6          3.13808705         -2.43623840          0.07466478
     8          2.61957835         -2.71940734         -2.11763476
     8          5.27584108         -1.27028129          0.81850262
     1          4.02139878         -1.95533624          5.13156317
     1          1.26736764         -3.45829246          8.60352938
     1         -2.73527104         -5.64148540          7.61697371
     1         -3.99806584         -6.32948766          3.17606189
     1         -1.21269939         -4.80950153         -0.29680619
     1          6.16505278         -0.78531857         -0.70026817

 Electric dipole moment (dipole orientation):
 (Debye = 10**-18 statcoulomb cm , SI units = C m)
                  (au)            (Debye)         (10**-30 SI)
   Tot        0.816774D+00      0.207603D+01      0.692489D+01
   x          0.000000D+00      0.000000D+00      0.000000D+00
   y          0.000000D+00      0.000000D+00      0.000000D+00
   z          0.816774D+00      0.207603D+01      0.692489D+01

 Dipole polarizability, Alpha (dipole orientation).
 (esu units = cm**3 , SI units = C**2 m**2 J**-1)
 Alpha(0;0):
               (au)            (10**-24 esu)      (10**-40 SI)
   iso        0.875054D+02      0.129670D+02      0.144277D+02
   aniso      0.563676D+02      0.835282D+01      0.929376D+01
   xx         0.916348D+02      0.135789D+02      0.151085D+02
   yx         0.216370D+02      0.320627D+01      0.356745D+01
   yy         0.637755D+02      0.945055D+01      0.105152D+02
   zx        -0.915261D+01     -0.135628D+01     -0.150906D+01
   zy        -0.500028D+01     -0.740966D+00     -0.824435D+00
   zz         0.107106D+03      0.158715D+02      0.176594D+02

 ----------------------------------------------------------------------
 Unable to Open any file for archive entry.
 1\1\GINC-AE02\Freq\RM062X\Aug-CC-pVTZ\C7H6O2\DHUANG\04-Mar-2025\0\\#N 
 Geom=AllCheck Guess=TCheck SCRF=Check GenChk RM062X/Aug-CC-pVTZ Freq\\
 1\\0,1\C,1.0188315618,1.6381089056,-1.1781600678\C,1.6116854052,1.3134
 677212,-2.3941510688\C,0.9791038095,1.6574252066,-3.5787399215\C,-0.23
 92652164,2.3221643069,-3.5480533398\C,-0.8301993282,2.6457575707,-2.33
 28607731\C,-0.202094413,2.3042540128,-1.1473297018\C,1.6538461256,1.29
 29354231,0.119664699\O,1.1906667064,1.5470856261,1.1987750831\O,2.8301
 24361,0.6510613064,-0.0207634403\H,2.5598050476,0.7961796785,-2.405543
 041\H,1.4361207064,1.4071595143,-4.5259518878\H,-0.7303805367,2.589192
 6628,-4.4740116732\H,-1.7790103228,3.1634190591,-2.3124437583\H,-0.639
 1275087,2.543639224,-0.187964158\H,3.1577701022,0.4733801817,0.8704643
 693\\Version=ES64L-G16RevC.01\State=1-A\HF=-420.8189063\RMSD=3.410e-09
 \RMSF=3.376e-05\ZeroPoint=0.1165793\Thermal=0.1236633\ETot=-420.695243
 \HTot=-420.6942988\GTot=-420.7343621\Dipole=0.1364635,-0.0753915,-0.80
 17561\DipoleDeriv=-0.158915,0.0609745,-0.2023797,0.0609861,-0.0799553,
 0.1100753,-0.1966671,0.106914,-0.4157499,0.0039826,-0.047129,-0.037770
 9,-0.0469265,-0.056702,0.0207822,0.1386942,-0.0755461,0.0462489,-0.152
 0943,0.0085575,-0.1058058,0.0085289,-0.1408162,0.0578941,-0.1350307,0.
 0738441,0.044278,0.0372574,-0.077879,0.0152638,-0.0778808,-0.0630317,-
 0.008138,0.0099853,-0.0052613,0.0850171,0.0600887,-0.1049894,-0.011303
 3,-0.1049432,-0.0750669,0.0060871,0.0368986,-0.0202111,-0.2111539,-0.0
 251436,-0.0295701,0.1151019,-0.0297546,-0.0633795,-0.0626374,-0.067814
 2,0.0371329,0.0603675,1.4978388,-0.6349625,0.2211189,-0.6349625,0.6801
 664,-0.118892,0.1702379,-0.0911598,1.9190147,-0.6447869,0.148755,0.041
 6685,0.1488713,-0.4535063,-0.0239938,0.1020185,-0.0567833,-1.4010569,-
 1.1965033,0.4556474,-0.1363944,0.4555085,-0.6097268,0.0742907,-0.14262
 ,0.0776819,-0.4927974,0.0306632,0.0537916,0.0096274,0.0537924,0.099887
 7,-0.0052839,0.010435,-0.0057217,0.0989775,0.0561106,0.0423294,0.04781
 1,0.0423181,0.1105002,-0.0262617,0.0417581,-0.0229564,-0.0429732,0.054
 9272,0.040391,-0.0556639,0.0403916,0.1070562,0.0302104,-0.0559614,0.03
 037,-0.0339638,-0.020203,0.0839876,-0.0056636,0.0839945,0.0879316,0.00
 30125,0.0001576,-0.0001595,0.059892,0.0880516,0.0216207,0.0303445,0.02
 16403,0.1158037,-0.0166307,0.0430126,-0.0235402,0.0462898,0.368726,-0.
 0215247,0.0740455,-0.0215642,0.3408391,-0.0405148,0.0448956,-0.0246033
 ,0.2376098\Polar=88.7306651,-20.0469636,62.9050342,7.9105529,-4.255246
 8,110.8804935\Quadrupole=2.7236414,-1.6802669,-1.0433745,-3.4141759,3.
 1860103,-1.7366591\PG=C01 [X(C7H6O2)]\NImag=0\\0.57535402,-0.23331804,
 0.27506667,-0.02782195,0.01571097,0.67737351,-0.15533141,0.04903017,0.
 10864118,0.61960516,0.04896967,-0.09243879,-0.05947571,-0.25950085,0.2
 8552747,0.04833352,-0.02657258,-0.27584574,0.00697481,-0.00328696,0.67
 390290,0.05505550,-0.02579721,-0.02920176,-0.16124665,0.05233360,-0.04
 807619,0.56392043,-0.02574513,0.02189005,0.01586538,0.05226531,-0.0937
 2923,0.02600884,-0.23253805,0.26463148,0.02141238,-0.01174898,-0.06035
 997,-0.11629324,0.06322805,-0.28881050,-0.03102757,0.01751803,0.739142
 97,-0.04655357,0.02170115,0.02978075,-0.02137705,0.01489940,-0.0765045
 2,-0.27722310,0.11606184,0.03910421,0.56773203,0.02170011,-0.01868728,
 -0.01626274,0.01495001,-0.00204467,0.04177677,0.11599457,-0.12786279,-
 0.02140282,-0.23191310,0.26910024,0.02961514,-0.01617302,-0.02221802,-
 0.02526177,0.01382066,0.04470784,-0.02989268,0.01624026,-0.13446700,0.
 03262927,-0.01722262,0.73106229,-0.01978054,0.01468067,-0.02388458,-0.
 00176343,-0.00204864,-0.00266254,-0.01629570,0.01244772,0.02811721,-0.
 15569933,0.04989679,0.11064608,0.61657495,0.01463260,-0.00080005,0.013
 06037,-0.00204730,-0.00439491,0.00137745,0.01249739,-0.00036341,-0.015
 30702,0.04982920,-0.09168675,-0.06058753,-0.26109052,0.28044745,-0.074
 08968,0.04045096,0.03707948,-0.00114716,0.00055055,-0.08208923,0.07835
 056,-0.04271339,0.04028645,0.04174132,-0.02299455,-0.28966174,0.003032
 72,-0.00112675,0.67214863,-0.26726543,0.10918147,-0.01921185,-0.017521
 50,0.01360258,0.07696213,-0.04984611,0.02410678,-0.03141821,0.06057102
 ,-0.02978399,-0.02763530,-0.16347335,0.05366943,-0.05067857,0.56161110
 ,0.10924050,-0.12670339,0.01042270,0.01355456,-0.00016352,-0.04195950,
 0.02410845,-0.01874093,0.01712739,-0.02973442,0.02226626,0.01501125,0.
 05360404,-0.09422313,0.02742455,-0.22741219,0.26890378,0.04140362,-0.0
 2264719,-0.12688214,0.02741988,-0.01493013,0.03718139,-0.02924998,0.01
 594432,-0.01975806,0.02296132,-0.01259340,-0.06114576,-0.11819973,0.06
 426237,-0.29174212,-0.02045660,0.01176381,0.75506539,-0.12048638,0.019
 53527,-0.04864302,0.01547859,-0.00846412,0.00282676,0.00307661,0.00313
 809,0.00725638,-0.00265263,0.00079073,0.00306756,-0.00402846,0.0067143
 0,0.00045732,-0.01307642,0.00802185,-0.02760126,0.56984792,0.01953624,
 -0.09523043,0.02644523,-0.00847047,0.00458339,-0.00157141,0.00313584,0
 .00710149,-0.00396839,0.00079027,-0.00164159,-0.00167360,0.00671836,0.
 00461213,-0.00025008,0.00802560,-0.00268822,0.01505856,-0.19211023,0.3
 2297631,-0.03878417,0.02108028,-0.17433304,-0.00761559,0.00412485,-0.0
 2937451,0.00521089,-0.00285394,-0.00165149,0.00273049,-0.00148864,-0.0
 0035324,0.00338487,-0.00184876,0.00727722,-0.02014152,0.01098766,0.001
 51863,-0.12431119,0.06875788,0.96172772,0.01906797,0.00150197,-0.00416
 684,-0.00146179,0.00222738,-0.00114965,0.00013436,-0.00105705,-0.00140
 659,0.00060732,-0.00025309,-0.00105553,0.00158180,-0.00134374,0.000912
 62,-0.00437181,0.00248499,-0.00168243,-0.19298635,0.06169474,0.2135872
 7,0.21790655,0.00152415,0.02099911,0.00218120,0.00221804,0.00141344,0.
 00062386,-0.00105633,-0.00122333,0.00076524,-0.00025155,0.00028294,0.0
 0057494,-0.00134486,-0.00014897,-0.00049828,0.00249640,-0.00117274,0.0
 0091682,0.06168442,-0.11423933,-0.11727992,-0.10072474,0.08911020,0.01
 211247,-0.00671021,-0.06010039,-0.00790576,0.00431057,0.00027613,-0.00
 132296,0.00072182,-0.00313329,0.00064697,-0.00035430,-0.00113222,-0.00
 005170,0.00002895,-0.00066392,0.00660384,-0.00360413,-0.00134340,0.205
 36293,-0.11278547,-0.64360153,-0.27383062,0.15029596,0.72258000,-0.024
 92137,0.02014789,-0.00793970,-0.00323760,0.00201913,0.00116593,-0.0003
 9338,-0.00021472,-0.00069113,-0.00055691,0.00035827,-0.00020861,-0.000
 56563,0.00003012,-0.00138361,0.00245943,-0.00059273,-0.00367742,-0.227
 59018,0.08824176,0.01153141,-0.04758120,0.04230740,0.05705796,0.385891
 07,0.02012426,0.00105289,0.00432509,0.00201516,-0.00064107,-0.00064154
 ,-0.00021393,-0.00066810,0.00037901,0.00035748,-0.00009473,0.00011406,
 0.00002909,-0.00052296,0.00075482,-0.00058847,0.00170279,0.00199798,0.
 08820716,-0.11400663,-0.00636416,0.04232079,0.00670167,-0.03117713,-0.
 18965346,0.14146142,-0.03361947,0.01833229,0.00290789,-0.00129624,0.00
 070212,-0.00456215,-0.00016888,0.00009411,0.00146206,-0.00110764,0.000
 60445,0.00031136,-0.00214851,0.00117201,-0.00069374,0.00076195,-0.0004
 2284,-0.00608923,-0.01270498,0.00685736,-0.12890502,0.06661958,-0.0363
 9214,-0.00573206,0.10151281,-0.05472115,0.59082256,-0.00787031,0.00627
 431,-0.00098330,-0.27779823,0.12952251,0.00538656,-0.00625094,0.006022
 95,0.00214793,0.00209443,0.00315601,-0.00237513,0.00024814,-0.00075503
 ,-0.00022625,0.00231180,0.00246989,0.00246669,-0.00221908,-0.00107116,
 -0.00004985,0.00047635,0.00007224,0.00004613,-0.00013029,0.00019557,-0
 .00263718,0.29025033,0.00629887,0.00019581,0.00053605,0.12952003,-0.11
 107249,-0.00295536,0.00599713,0.00151158,-0.00117166,0.00315626,0.0061
 6265,0.00128367,-0.00075486,-0.00072342,0.00012362,0.00246938,0.005486
 01,-0.00135746,-0.00106791,-0.00359946,0.00003326,0.00007136,0.0005696
 6,-0.00002591,0.00019635,0.00012743,0.00143638,-0.14363651,0.10535184,
 0.02384901,-0.01301048,0.00492664,0.00333288,-0.00183658,-0.05880890,-
 0.02388290,0.01303104,0.00556192,-0.00241201,0.00130391,-0.00438033,-0
 .00008819,0.00004792,-0.00135557,0.00215850,-0.00118935,-0.00510973,0.
 00281153,-0.00152879,0.00107572,-0.00094574,0.00051623,0.00058477,-0.0
 0186827,0.00101654,-0.00235822,-0.00343606,0.00190557,0.05833078,0.001
 10267,0.00370838,-0.00299296,0.01009866,-0.00362912,-0.01397149,-0.105
 81085,0.03669389,0.10586758,-0.00665690,0.00559465,0.02550005,-0.00267
 608,0.00561624,-0.00077002,-0.00110483,-0.00001054,-0.00084580,0.00074
 909,-0.00015631,-0.00044831,-0.00018532,-0.00006266,-0.00040189,-0.000
 05456,0.00003019,0.00006264,-0.00042234,-0.00210650,0.00056863,0.10568
 873,0.00370744,0.00588365,0.00162234,-0.00360256,0.00544490,0.00760093
 ,0.03669382,-0.05881905,-0.05799398,0.00556797,0.00050058,-0.01391206,
 0.00561679,0.00455563,0.00041438,-0.00001048,-0.00111648,0.00046270,-0
 .00015453,0.00054754,0.00024424,-0.00006229,-0.00026482,0.00021871,0.0
 0002981,-0.00001555,-0.00003424,-0.00210719,-0.00313500,-0.00030509,-0
 .04328147,0.05023417,-0.00357713,0.00194130,-0.00288390,0.01308230,-0.
 00715888,-0.01848677,0.10579686,-0.05795554,-0.27841450,-0.00173106,0.
 00094456,0.00367810,-0.00031937,0.00016845,0.00178337,-0.00078905,0.00
 043184,0.00023258,0.00141696,-0.00077318,0.00012789,-0.00023093,0.0001
 2509,-0.00091865,-0.00036920,0.00020124,-0.00009370,-0.00016631,0.0000
 9586,0.00096499,-0.11343716,0.06215037,0.29338680,-0.00099658,-0.00002
 596,0.00101285,-0.00278344,0.00577874,0.00076403,-0.00691437,0.0061938
 6,-0.02490147,-0.11411875,0.03987056,-0.11010009,0.01034236,-0.0031869
 0,0.01245703,0.00133506,0.00349509,0.00307342,-0.00052018,-0.00044946,
 0.00015579,0.00018116,-0.00000343,-0.00014618,0.00009298,0.00000107,-0
 .00014262,-0.00041247,0.00016195,-0.00117481,-0.00012686,-0.00219708,0
 .00039253,0.11397034,-0.00002620,-0.00103233,-0.00055135,0.00577859,0.
 00465419,-0.00042249,0.00622034,0.00110338,0.01358560,0.03987050,-0.06
 253347,0.05984444,-0.00321352,0.00622490,-0.00681835,0.00349557,0.0058
 2704,-0.00168797,-0.00044951,-0.00109928,-0.00008372,-0.00000338,0.000
 17722,0.00007947,0.00000114,0.00009466,0.00007775,0.00016324,-0.000202
 01,0.00064110,-0.00219783,-0.00295581,-0.00020944,-0.04734932,0.052737
 47,0.00102491,-0.00055792,0.00022198,0.00057198,-0.00031806,0.00171424
 ,0.00220867,-0.00120479,0.00464666,-0.11013796,0.05986504,-0.26787806,
 -0.01458290,0.00793424,-0.01761983,0.00326082,-0.00179026,-0.00371055,
 0.00013825,-0.00007425,-0.00016102,-0.00019585,0.00010666,-0.00000769,
 -0.00014190,0.00007729,-0.00001827,0.00019060,-0.00010378,0.00011134,-
 0.00040502,0.00022565,0.00060278,0.11858443,-0.06444573,0.28190880,0.0
 0232756,0.00314720,-0.00279690,0.00029514,-0.00076378,-0.00000834,0.00
 228715,0.00289881,0.00263899,-0.00711645,0.00582116,-0.00200567,-0.274
 69405,0.12859740,0.00491601,-0.00807137,0.00634363,0.00213836,-0.00012
 610,0.00025355,0.00088112,0.00003370,0.00001710,-0.00034241,-0.0003036
 0,0.00007358,-0.00031816,-0.00033653,-0.00047969,-0.00000105,-0.000406
 53,0.00030882,-0.00016651,-0.00039231,-0.00201339,0.00022810,0.2869825
 3,0.00314772,0.00638537,0.00151347,-0.00076378,-0.00068819,0.00000408,
 0.00289849,0.00601314,-0.00145174,0.00584786,0.00036759,0.00109505,0.1
 2859750,-0.10915182,-0.00270246,0.00631705,0.00010462,-0.00116499,0.00
 025158,0.00019910,-0.00047985,0.00001766,0.00005645,0.00018635,0.00007
 352,-0.00020797,0.00017317,-0.00047973,-0.00095405,0.00000189,0.000310
 20,-0.00000933,0.00009075,-0.00201421,-0.00298442,-0.00011949,-0.14205
 644,0.10411393,-0.00229523,0.00124008,-0.00436375,-0.00001461,0.000007
 49,-0.00157065,0.00218433,-0.00120377,-0.00460890,0.02515571,-0.013723
 50,0.00432725,0.00496232,-0.00272767,-0.05940975,-0.02482697,0.0135463
 9,0.00513970,-0.00096323,0.00052646,0.00106836,0.00013552,-0.00007440,
 -0.00027857,-0.00041850,0.00022784,-0.00055604,-0.00002643,0.00001576,
 0.00011757,0.00123871,-0.00067591,0.00006329,-0.00057566,0.00031907,0.
 00096133,-0.00505752,0.00279051,0.05812853,-0.00623241,0.00590202,0.02
 515218,-0.00305699,0.00523300,-0.00106974,-0.00084678,-0.00015005,-0.0
 0073472,0.00088323,0.00384464,-0.00312073,0.01077298,-0.00326319,-0.01
 386901,-0.10348033,0.03409118,0.10364730,-0.00233062,-0.00097005,0.003
 34901,0.00127340,-0.00081645,-0.00154738,0.00106597,-0.00052399,-0.000
 53361,-0.00028637,0.00043378,0.00134128,-0.00019905,-0.00052114,0.0000
 6408,0.00031247,-0.00024924,-0.00075597,-0.00043656,-0.00213259,0.0006
 0866,0.10266754,0.00587743,0.00131992,-0.01372347,0.00523326,0.0036817
 5,0.00057844,-0.00015001,-0.00103827,0.00040229,0.00384455,0.00583996,
 0.00169223,-0.00323822,0.00659078,0.00754624,0.03409373,-0.05983924,-0
 .05678738,-0.00097427,-0.00358615,-0.00182335,-0.00081623,0.00022645,0
 .00084285,-0.00052240,0.00039189,0.00029095,0.00043235,0.00026979,-0.0
 0073201,-0.00052115,-0.00087008,-0.00003387,-0.00024790,-0.00000733,0.
 00041183,-0.00213328,-0.00318296,-0.00032685,-0.04103441,0.05010832,0.
 00092655,-0.00050727,0.00300411,-0.00071809,0.00038671,0.00152975,-0.0
 0085454,0.00046748,0.00012552,-0.00299426,0.00162289,-0.00276407,0.011
 80448,-0.00646038,-0.01567131,0.10542146,-0.05775472,-0.28339938,-0.00
 061857,0.00034088,-0.00050733,-0.00154527,0.00084224,-0.00117748,0.000
 72464,-0.00039551,-0.00002696,-0.00017663,0.00009609,0.00023307,0.0000
 4624,-0.00002412,-0.00005339,0.00060233,-0.00032927,-0.00078047,-0.000
 13547,0.00007925,0.00097294,-0.11246531,0.06162630,0.29849526,-0.00346
 971,0.00433072,0.00305589,0.00010054,-0.00017950,0.00102872,0.00035383
 ,-0.00012424,-0.00007175,0.00006665,-0.00002733,0.00019739,-0.00054365
 ,0.00009999,0.00029672,-0.00007727,0.00033571,-0.00139735,-0.02313581,
 0.01483132,-0.04948021,0.00532386,-0.00605974,0.00371860,-0.08417474,0
 .03762551,-0.11427968,0.00034552,-0.00025965,-0.00025279,0.00000414,0.
 00001210,0.00003399,0.00003058,-0.00002701,0.00001184,-0.00004256,-0.0
 0001483,-0.00010709,-0.00010647,0.00015654,-0.00001756,0.10532510,0.00
 433036,0.00209880,-0.00166955,-0.00018018,-0.00013226,-0.00056052,-0.0
 0012411,0.00019399,0.00003898,-0.00002740,0.00003106,-0.00010773,0.000
 09967,-0.00041549,-0.00016124,0.00033716,0.00035715,0.00076194,0.01487
 716,-0.00392886,0.02699417,-0.00605837,-0.00248793,-0.00202755,0.03757
 791,-0.03537574,0.06182978,-0.00025947,0.00001167,0.00013812,0.0000120
 3,0.00001965,-0.00001856,-0.00002702,-0.00000421,-0.00000643,-0.000014
 67,-0.00006145,0.00005851,0.00015650,0.00009517,0.00000942,-0.05069959
 ,0.03959846,0.00151003,-0.00082823,0.00147334,0.00022944,-0.00012468,0
 .00023618,-0.00007384,0.00004016,-0.00002187,0.00013741,-0.00007507,-0
 .00008640,-0.00001016,0.00000634,0.00033206,-0.00001063,0.00000521,0.0
 0004269,-0.00849545,0.00463881,0.00609162,0.00495445,-0.00270351,-0.00
 535169,-0.15529443,0.08420561,-0.44646848,-0.00016076,0.00008791,0.000
 10595,-0.00001119,0.00000609,0.00001111,-0.00000157,0.00000088,0.00000
 873,0.00002945,-0.00001599,0.00000867,-0.00006603,0.00003579,0.0000197
 2,0.15726328,-0.08527932,0.44359837\\0.00000511,0.00001444,0.00003220,
 -0.00000334,0.00000423,-0.00012449,0.00002843,-0.00001683,0.00006179,-
 0.00001460,0.00000821,0.00004142,0.00002246,-0.00001355,-0.00003502,-0
 .00002742,0.00001622,-0.00002381,-0.00011174,0.00000162,0.00004942,0.0
 0003695,0.00000326,-0.00003154,0.00006123,-0.00001636,0.00002897,-0.00
 000661,0.00000380,0.00002729,-0.00000182,0.00000083,-0.00000241,0.0000
 0673,-0.00000346,-0.00000657,0.00000291,-0.00000187,-0.00000952,0.0000
 1515,-0.00000808,0.00000948,-0.00001343,0.00000753,-0.00001722\\\@
 The archive entry for this job was punched.


 FROM WHENCE IT HAPPENS, THAT THEY WHICH TRUST TO BOOKS, DO AS THEY THAT CAST UP MANY LITTLE SUMMS INTO GREATER,
 WITHOUT CONSIDERING WETHER THOSE LITTLE SUMMES WERE RIGHTLY CAST UP OR NOT...
 AND AT LAST FINDING THE ERROUR VISIBLE, AND NOT MISTRUSTING THEIR FIRST GROUNDS,
 KNOW NOT WHICH WAY TO CLEERE THEMSELVES...
 BUT SPEND TIME IN FLUTTERING OVER THEIR BOOKES....
 AS BIRDS THAT ENTERING BY THE CHIMNEY, AND FINDING THEMSELVES INCLOSED IN A CHAMBER,
 FLUTTER AT THE FALSE LIGHT OF A GLASSE WINDOW,
 FOR WANT OF WIT TO CONSIDER WHICH WAY THEY CAME IN....
           LEVIATHAN
 Job cpu time:       0 days  9 hours 43 minutes 31.7 seconds.
 Elapsed time:       0 days  0 hours 29 minutes 11.5 seconds.
 File lengths (MBytes):  RWF=    333 Int=      0 D2E=      0 Chk=     25 Scr=      1
 Normal termination of Gaussian 16 at Tue Mar  4 18:03:42 2025.
