 Entering Gaussian System, Link 0=g16
 Initial command:
 /usr/local/gaussian16c01/g16/l1.exe "/scr/dhuang/Gau-186974.inp" -scrdir="/scr/dhuang/"
 Entering Link 1 = /usr/local/gaussian16c01/g16/l1.exe PID=    186976.
  
 Copyright (c) 1988-2019, Gaussian, Inc.  All Rights Reserved.
  
 This is part of the Gaussian(R) 16 program.  It is based on
 the Gaussian(R) 09 system (copyright 2009, Gaussian, Inc.),
 the Gaussian(R) 03 system (copyright 2003, Gaussian, Inc.),
 the Gaussian(R) 98 system (copyright 1998, Gaussian, Inc.),
 the Gaussian(R) 94 system (copyright 1995, Gaussian, Inc.),
 the Gaussian 92(TM) system (copyright 1992, Gaussian, Inc.),
 the Gaussian 90(TM) system (copyright 1990, Gaussian, Inc.),
 the Gaussian 88(TM) system (copyright 1988, Gaussian, Inc.),
 the Gaussian 86(TM) system (copyright 1986, Carnegie Mellon
 University), and the Gaussian 82(TM) system (copyright 1983,
 Carnegie Mellon University). Gaussian is a federally registered
 trademark of Gaussian, Inc.
  
 This software contains proprietary and confidential information,
 including trade secrets, belonging to Gaussian, Inc.
  
 This software is provided under written license and may be
 used, copied, transmitted, or stored only in accord with that
 written license.
  
 The following legend is applicable only to US Government
 contracts under FAR:
  
                    RESTRICTED RIGHTS LEGEND
  
 Use, reproduction and disclosure by the US Government is
 subject to restrictions as set forth in subparagraphs (a)
 and (c) of the Commercial Computer Software - Restricted
 Rights clause in FAR 52.227-19.
  
 Gaussian, Inc.
 340 Quinnipiac St., Bldg. 40, Wallingford CT 06492
  
  
 ---------------------------------------------------------------
 Warning -- This program may not be used in any manner that
 competes with the business of Gaussian, Inc. or will provide
 assistance to any competitor of Gaussian, Inc.  The licensee
 of this program is prohibited from giving any competitor of
 Gaussian, Inc. access to this program.  By using this program,
 the user acknowledges that Gaussian, Inc. is engaged in the
 business of creating and licensing software in the field of
 computational chemistry and represents and warrants to the
 licensee that it is not a competitor of Gaussian, Inc. and that
 it will not use this program in any manner prohibited above.
 ---------------------------------------------------------------
  

 Cite this work as:
 Gaussian 16, Revision C.01,
 M. J. Frisch, G. W. Trucks, H. B. Schlegel, G. E. Scuseria, 
 M. A. Robb, J. R. Cheeseman, G. Scalmani, V. Barone, 
 G. A. Petersson, H. Nakatsuji, X. Li, M. Caricato, A. V. Marenich, 
 J. Bloino, B. G. Janesko, R. Gomperts, B. Mennucci, H. P. Hratchian, 
 J. V. Ortiz, A. F. Izmaylov, J. L. Sonnenberg, D. Williams-Young, 
 F. Ding, F. Lipparini, F. Egidi, J. Goings, B. Peng, A. Petrone, 
 T. Henderson, D. Ranasinghe, V. G. Zakrzewski, J. Gao, N. Rega, 
 G. Zheng, W. Liang, M. Hada, M. Ehara, K. Toyota, R. Fukuda, 
 J. Hasegawa, M. Ishida, T. Nakajima, Y. Honda, O. Kitao, H. Nakai, 
 T. Vreven, K. Throssell, J. A. Montgomery, Jr., J. E. Peralta, 
 F. Ogliaro, M. J. Bearpark, J. J. Heyd, E. N. Brothers, K. N. Kudin, 
 V. N. Staroverov, T. A. Keith, R. Kobayashi, J. Normand, 
 K. Raghavachari, A. P. Rendell, J. C. Burant, S. S. Iyengar, 
 J. Tomasi, M. Cossi, J. M. Millam, M. Klene, C. Adamo, R. Cammi, 
 J. W. Ochterski, R. L. Martin, K. Morokuma, O. Farkas, 
 J. B. Foresman, and D. J. Fox, Gaussian, Inc., Wallingford CT, 2019.
 
 ******************************************
 Gaussian 16:  ES64L-G16RevC.01  3-Jul-2019
                 4-Mar-2025 
 ******************************************
 %nprocshared=20
 Will use up to   20 processors via shared memory.
 %mem=10000MW
 %chk=10.chk
 ------------------------------------
 # opt freq m062x/aug-cc-pvtz pop=nbo
 ------------------------------------
 1/18=20,19=15,26=3,38=1/1,3;
 2/9=110,12=2,17=6,18=5,40=1/2;
 3/5=16,6=1,7=10,11=2,25=1,30=1,71=1,74=-55/1,2,3;
 4//1;
 5/5=2,38=5/2;
 6/7=2,8=2,9=2,10=2,28=1,40=1/1,7;
 7//1,2,3,16;
 1/18=20,19=15,26=3/3(2);
 2/9=110/2;
 99//99;
 2/9=110/2;
 3/5=16,6=1,7=10,11=2,25=1,30=1,71=1,74=-55/1,2,3;
 4/5=5,16=3,69=1/1;
 5/5=2,38=5/2;
 7//1,2,3,16;
 1/18=20,19=15,26=3/3(-5);
 2/9=110/2;
 6/7=2,8=2,9=2,10=2,19=2,28=1,40=1/1,7;
 99/9=1/99;
 --
 10
 --
 Symbolic Z-matrix:
 Charge =  0 Multiplicity = 1
 C                    -3.00585  -0.90048   3.00328 
 C                    -1.72961  -1.53795   2.51896 
 N                    -0.75965  -1.99351   3.20848 
 C                    -0.76982  -1.94864   4.68314 
 C                     0.21832  -2.48906   2.56551 
 C                     1.50584  -3.10585   3.03507 
 C                    -0.13684  -2.35014   1.27921 
 C                    -1.34483  -1.76054   1.24453 
 C                    -2.0103   -1.4664    0.0939 
 O                    -1.51399  -1.73752  -0.98407 
 O                    -3.2278   -0.8716    0.1003 
 H                    -3.08888   0.14405   2.62692 
 H                    -3.88843  -1.49548   2.67697 
 H                    -3.06416  -0.8377    4.11082 
 H                     0.14443  -2.38799   5.13766 
 H                    -0.82921  -0.89511   5.0402 
 H                    -1.63415  -2.52527   5.08471 
 H                     2.13717  -3.43705   2.18028 
 H                     2.09743  -2.36951   3.62463 
 H                     1.30104  -3.99888   3.66778 
 H                     0.47339  -2.67158   0.42497 
 H                    -3.54002  -0.74341  -0.80537 
 

 GradGradGradGradGradGradGradGradGradGradGradGradGradGradGradGradGradGrad
 Berny optimization.
 Initialization pass.
                           ----------------------------
                           !    Initial Parameters    !
                           ! (Angstroms and Degrees)  !
 --------------------------                            --------------------------
 ! Name  Definition              Value          Derivative Info.                !
 --------------------------------------------------------------------------------
 ! R1    R(1,2)                  1.5066         estimate D2E/DX2                !
 ! R2    R(1,12)                 1.1134         estimate D2E/DX2                !
 ! R3    R(1,13)                 1.1133         estimate D2E/DX2                !
 ! R4    R(1,14)                 1.1108         estimate D2E/DX2                !
 ! R5    R(2,3)                  1.2743         estimate D2E/DX2                !
 ! R6    R(2,8)                  1.3497         estimate D2E/DX2                !
 ! R7    R(3,4)                  1.4754         estimate D2E/DX2                !
 ! R8    R(3,5)                  1.271          estimate D2E/DX2                !
 ! R9    R(4,15)                 1.1115         estimate D2E/DX2                !
 ! R10   R(4,16)                 1.114          estimate D2E/DX2                !
 ! R11   R(4,17)                 1.1139         estimate D2E/DX2                !
 ! R12   R(5,6)                  1.5029         estimate D2E/DX2                !
 ! R13   R(5,7)                  1.3416         estimate D2E/DX2                !
 ! R14   R(6,18)                 1.1131         estimate D2E/DX2                !
 ! R15   R(6,19)                 1.1134         estimate D2E/DX2                !
 ! R16   R(6,20)                 1.1135         estimate D2E/DX2                !
 ! R17   R(7,8)                  1.3446         estimate D2E/DX2                !
 ! R18   R(7,21)                 1.0979         estimate D2E/DX2                !
 ! R19   R(8,9)                  1.3614         estimate D2E/DX2                !
 ! R20   R(9,10)                 1.2173         estimate D2E/DX2                !
 ! R21   R(9,11)                 1.355          estimate D2E/DX2                !
 ! R22   R(11,22)                0.9665         estimate D2E/DX2                !
 ! A1    A(2,1,12)             110.5772         estimate D2E/DX2                !
 ! A2    A(2,1,13)             110.5603         estimate D2E/DX2                !
 ! A3    A(2,1,14)             112.8862         estimate D2E/DX2                !
 ! A4    A(12,1,13)            110.0717         estimate D2E/DX2                !
 ! A5    A(12,1,14)            106.2665         estimate D2E/DX2                !
 ! A6    A(13,1,14)            106.3089         estimate D2E/DX2                !
 ! A7    A(1,2,3)              128.4715         estimate D2E/DX2                !
 ! A8    A(1,2,8)              127.9391         estimate D2E/DX2                !
 ! A9    A(3,2,8)              103.5894         estimate D2E/DX2                !
 ! A10   A(2,3,4)              121.6498         estimate D2E/DX2                !
 ! A11   A(2,3,5)              116.8297         estimate D2E/DX2                !
 ! A12   A(4,3,5)              121.5205         estimate D2E/DX2                !
 ! A13   A(3,4,15)             113.0183         estimate D2E/DX2                !
 ! A14   A(3,4,16)             110.4562         estimate D2E/DX2                !
 ! A15   A(3,4,17)             110.4829         estimate D2E/DX2                !
 ! A16   A(15,4,16)            106.6549         estimate D2E/DX2                !
 ! A17   A(15,4,17)            106.6307         estimate D2E/DX2                !
 ! A18   A(16,4,17)            109.43           estimate D2E/DX2                !
 ! A19   A(3,5,6)              131.3877         estimate D2E/DX2                !
 ! A20   A(3,5,7)              103.9433         estimate D2E/DX2                !
 ! A21   A(6,5,7)              124.669          estimate D2E/DX2                !
 ! A22   A(5,6,18)             111.5987         estimate D2E/DX2                !
 ! A23   A(5,6,19)             110.4389         estimate D2E/DX2                !
 ! A24   A(5,6,20)             110.4339         estimate D2E/DX2                !
 ! A25   A(18,6,19)            107.5803         estimate D2E/DX2                !
 ! A26   A(18,6,20)            107.5815         estimate D2E/DX2                !
 ! A27   A(19,6,20)            109.1016         estimate D2E/DX2                !
 ! A28   A(5,7,8)              107.9352         estimate D2E/DX2                !
 ! A29   A(5,7,21)             124.6466         estimate D2E/DX2                !
 ! A30   A(8,7,21)             127.4182         estimate D2E/DX2                !
 ! A31   A(2,8,7)              107.7024         estimate D2E/DX2                !
 ! A32   A(2,8,9)              128.5399         estimate D2E/DX2                !
 ! A33   A(7,8,9)              123.7577         estimate D2E/DX2                !
 ! A34   A(8,9,10)             120.0684         estimate D2E/DX2                !
 ! A35   A(8,9,11)             122.0093         estimate D2E/DX2                !
 ! A36   A(10,9,11)            117.9223         estimate D2E/DX2                !
 ! A37   A(9,11,22)            110.1234         estimate D2E/DX2                !
 ! D1    D(12,1,2,3)           119.0957         estimate D2E/DX2                !
 ! D2    D(12,1,2,8)           -60.8808         estimate D2E/DX2                !
 ! D3    D(13,1,2,3)          -118.7407         estimate D2E/DX2                !
 ! D4    D(13,1,2,8)            61.2828         estimate D2E/DX2                !
 ! D5    D(14,1,2,3)             0.1987         estimate D2E/DX2                !
 ! D6    D(14,1,2,8)          -179.7778         estimate D2E/DX2                !
 ! D7    D(1,2,3,4)              0.0188         estimate D2E/DX2                !
 ! D8    D(1,2,3,5)           -179.9831         estimate D2E/DX2                !
 ! D9    D(8,2,3,4)            179.9997         estimate D2E/DX2                !
 ! D10   D(8,2,3,5)             -0.0022         estimate D2E/DX2                !
 ! D11   D(1,2,8,7)            179.9799         estimate D2E/DX2                !
 ! D12   D(1,2,8,9)             -0.023          estimate D2E/DX2                !
 ! D13   D(3,2,8,7)             -0.0012         estimate D2E/DX2                !
 ! D14   D(3,2,8,9)            179.996          estimate D2E/DX2                !
 ! D15   D(2,3,4,15)           179.7648         estimate D2E/DX2                !
 ! D16   D(2,3,4,16)           -60.8398         estimate D2E/DX2                !
 ! D17   D(2,3,4,17)            60.3815         estimate D2E/DX2                !
 ! D18   D(5,3,4,15)            -0.2332         estimate D2E/DX2                !
 ! D19   D(5,3,4,16)           119.1622         estimate D2E/DX2                !
 ! D20   D(5,3,4,17)          -119.6165         estimate D2E/DX2                !
 ! D21   D(2,3,5,6)           -179.9993         estimate D2E/DX2                !
 ! D22   D(2,3,5,7)              0.0045         estimate D2E/DX2                !
 ! D23   D(4,3,5,6)             -0.0012         estimate D2E/DX2                !
 ! D24   D(4,3,5,7)           -179.9974         estimate D2E/DX2                !
 ! D25   D(3,5,6,18)          -179.9697         estimate D2E/DX2                !
 ! D26   D(3,5,6,19)           -60.3515         estimate D2E/DX2                !
 ! D27   D(3,5,6,20)            60.4141         estimate D2E/DX2                !
 ! D28   D(7,5,6,18)             0.0258         estimate D2E/DX2                !
 ! D29   D(7,5,6,19)           119.644          estimate D2E/DX2                !
 ! D30   D(7,5,6,20)          -119.5905         estimate D2E/DX2                !
 ! D31   D(3,5,7,8)             -0.0049         estimate D2E/DX2                !
 ! D32   D(3,5,7,21)           179.9993         estimate D2E/DX2                !
 ! D33   D(6,5,7,8)            179.9986         estimate D2E/DX2                !
 ! D34   D(6,5,7,21)             0.0028         estimate D2E/DX2                !
 ! D35   D(5,7,8,2)              0.0039         estimate D2E/DX2                !
 ! D36   D(5,7,8,9)           -179.9935         estimate D2E/DX2                !
 ! D37   D(21,7,8,2)           179.9995         estimate D2E/DX2                !
 ! D38   D(21,7,8,9)             0.0022         estimate D2E/DX2                !
 ! D39   D(2,8,9,10)           179.9677         estimate D2E/DX2                !
 ! D40   D(2,8,9,11)            -0.0222         estimate D2E/DX2                !
 ! D41   D(7,8,9,10)            -0.0356         estimate D2E/DX2                !
 ! D42   D(7,8,9,11)           179.9746         estimate D2E/DX2                !
 ! D43   D(8,9,11,22)          180.0            estimate D2E/DX2                !
 ! D44   D(10,9,11,22)           0.0099         estimate D2E/DX2                !
 --------------------------------------------------------------------------------
 Trust Radius=3.00D-01 FncErr=1.00D-07 GrdErr=1.00D-06 EigMax=2.50D+02 EigMin=1.00D-04
 Number of steps in this run=    113 maximum allowed number of steps=    132.
 GradGradGradGradGradGradGradGradGradGradGradGradGradGradGradGradGradGrad

                          Input orientation:                          
 ---------------------------------------------------------------------
 Center     Atomic      Atomic             Coordinates (Angstroms)
 Number     Number       Type             X           Y           Z
 ---------------------------------------------------------------------
      1          6           0       -3.005847   -0.900479    3.003283
      2          6           0       -1.729613   -1.537953    2.518957
      3          7           0       -0.759649   -1.993508    3.208484
      4          6           0       -0.769821   -1.948644    4.683144
      5          6           0        0.218315   -2.489062    2.565506
      6          6           0        1.505839   -3.105849    3.035067
      7          6           0       -0.136841   -2.350142    1.279210
      8          6           0       -1.344826   -1.760539    1.244535
      9          6           0       -2.010300   -1.466400    0.093900
     10          8           0       -1.513987   -1.737521   -0.984073
     11          8           0       -3.227800   -0.871600    0.100300
     12          1           0       -3.088876    0.144045    2.626916
     13          1           0       -3.888434   -1.495481    2.676967
     14          1           0       -3.064161   -0.837703    4.110823
     15          1           0        0.144428   -2.387995    5.137659
     16          1           0       -0.829205   -0.895106    5.040200
     17          1           0       -1.634149   -2.525267    5.084705
     18          1           0        2.137173   -3.437052    2.180283
     19          1           0        2.097427   -2.369509    3.624628
     20          1           0        1.301037   -3.998877    3.667784
     21          1           0        0.473386   -2.671579    0.424973
     22          1           0       -3.540024   -0.743415   -0.805366
 ---------------------------------------------------------------------
                    Distance matrix (angstroms):
                    1          2          3          4          5
     1  C    0.000000
     2  C    1.506558   0.000000
     3  N    2.506436   1.274287   0.000000
     4  C    2.986704   2.402826   1.475378   0.000000
     5  C    3.620838   2.168225   1.270987   2.398511   0.000000
     6  C    5.021949   3.632191   2.529785   3.038734   1.502874
     7  C    3.647622   2.175672   2.058440   3.485489   1.341638
     8  C    2.567468   1.349726   2.062475   3.491426   2.172354
     9  C    3.126642   2.442296   3.397441   4.778338   3.481580
    10  O    4.338812   3.515330   4.267562   5.719765   4.020597
    11  O    2.911599   2.922070   4.124470   5.310758   4.535321
    12  H    1.113363   2.165264   3.214444   3.739712   4.227829
    13  H    1.113315   2.165013   3.212451   3.735754   4.226703
    14  H    1.110850   2.192124   2.731460   2.612612   3.986181
    15  H    4.085645   3.330495   2.166724   1.111514   2.575198
    16  H    2.981079   2.753298   2.136939   1.113983   3.124437
    17  H    2.975535   2.750812   2.137223   1.113916   3.127187
    18  H    5.793287   4.321262   3.395967   4.114642   2.174648
    19  H    5.346730   4.069426   2.911604   3.085238   2.160345
    20  H    5.347044   4.069495   2.911854   3.085914   2.160288
    21  H    4.678625   3.243930   3.118988   4.494465   2.163390
    22  H    3.849133   3.867817   5.040259   6.265010   5.341833
                    6          7          8          9         10
     6  C    0.000000
     7  C    2.520421   0.000000
     8  C    3.625211   1.344642   0.000000
     9  C    4.868417   2.386590   1.361372   0.000000
    10  O    5.210101   2.719244   2.235137   1.217316   0.000000
    11  O    6.001005   3.623527   2.375937   1.355040   2.205184
    12  H    5.642677   4.092895   2.929186   3.189518   4.365753
    13  H    5.640896   4.093730   2.931222   3.193817   4.370331
    14  H    5.214080   4.344503   3.467470   4.200185   5.400989
    15  H    2.605695   3.868872   4.215210   5.561627   6.375661
    16  H    3.789509   4.091643   3.927075   5.117348   6.121312
    17  H    3.794419   4.093213   3.926248   5.115743   6.120870
    18  H    1.113074   2.676647   3.976259   5.043609   5.121770
    19  H    1.113443   3.239338   4.229042   5.491363   5.889129
    20  H    1.113452   3.238998   4.228816   5.490997   5.888792
    21  H    2.840271   1.097915   2.192617   2.780425   2.609124
    22  H    6.766886   4.302172   3.171045   1.916101   2.263848
                   11         12         13         14         15
    11  O    0.000000
    12  H    2.726650   0.000000
    13  H    2.732193   1.824786   0.000000
    14  H    4.014004   1.779444   1.779900   0.000000
    15  H    6.248709   4.813451   4.807865   3.708482   0.000000
    16  H    5.491487   3.465529   3.912059   2.421170   1.784987
    17  H    5.488044   3.909244   3.455353   2.416868   1.784653
    18  H    6.300064   6.351009   6.350144   6.126783   3.717206
    19  H    6.559166   5.849028   6.123114   5.405998   2.470589
    20  H    6.558748   6.125239   5.846309   5.407796   2.468444
    21  H    4.128452   5.046384   5.047787   5.427967   4.732657
    22  H    0.966513   3.573749   3.579614   4.940067   7.183271
                   16         17         18         19         20
    16  H    0.000000
    17  H    1.818610   0.000000
    18  H    4.841489   4.846636   0.000000
    19  H    3.569718   4.010081   1.796485   0.000000
    20  H    4.006851   3.576941   1.796505   1.814095   0.000000
    21  H    5.113993   5.116269   2.536779   3.600909   3.600354
    22  H    6.445324   6.442072   6.957036   7.351863   7.351393
                   21         22
    21  H    0.000000
    22  H    4.619416   0.000000
 Stoichiometry    C8H11NO2
 Framework group  C1[X(C8H11NO2)]
 Deg. of freedom    60
 Full point group                 C1      NOp   1
 Largest Abelian subgroup         C1      NOp   1
 Largest concise Abelian subgroup C1      NOp   1
                         Standard orientation:                         
 ---------------------------------------------------------------------
 Center     Atomic      Atomic             Coordinates (Angstroms)
 Number     Number       Type             X           Y           Z
 ---------------------------------------------------------------------
      1          6           0        0.486105    2.249465    0.000346
      2          6           0       -0.047648    0.840627   -0.000034
      3          7           0       -1.261465    0.452739   -0.000037
      4          6           0       -2.381202    1.413431   -0.000049
      5          6           0       -1.462654   -0.802224   -0.000067
      6          6           0       -2.733258   -1.604841   -0.000094
      7          6           0       -0.228138   -1.327545    0.000017
      8          6           0        0.653785   -0.312521   -0.000016
      9          6           0        2.004337   -0.483822   -0.000081
     10          8           0        2.476843   -1.605693    0.000542
     11          8           0        2.861459    0.565690   -0.000622
     12          1           0        1.098806    2.435547    0.911141
     13          1           0        1.093263    2.437793   -0.913635
     14          1           0       -0.317855    3.016030    0.004206
     15          1           0       -3.377194    0.920030   -0.004251
     16          1           0       -2.345535    2.052922    0.911399
     17          1           0       -2.341219    2.058639   -0.907197
     18          1           0       -2.526957   -2.698629    0.000430
     19          1           0       -3.337632   -1.376161    0.906655
     20          1           0       -3.337027   -1.376892   -0.907440
     21          1           0       -0.007456   -2.403053    0.000030
     22          1           0        3.774683    0.249197   -0.000579
 ---------------------------------------------------------------------
 Rotational constants (GHZ):           1.9564512           0.8956694           0.6219624
 Standard basis: Aug-CC-pVTZ (5D, 7F)
 There are   880 symmetry adapted cartesian basis functions of A   symmetry.
 There are   759 symmetry adapted basis functions of A   symmetry.
   759 basis functions,  1089 primitive gaussians,   880 cartesian basis functions
    41 alpha electrons       41 beta electrons
       nuclear repulsion energy       633.0426808632 Hartrees.
 NAtoms=   22 NActive=   22 NUniq=   22 SFac= 1.00D+00 NAtFMM=   60 NAOKFM=F Big=F
 Integral buffers will be    131072 words long.
 Raffenetti 2 integral format.
 Two-electron integral symmetry is turned on.
 One-electron integrals computed using PRISM.
 NBasis=   759 RedAO= T EigKep=  1.21D-06  NBF=   759
 NBsUse=   757 1.00D-06 EigRej=  7.09D-07 NBFU=   757
 ExpMin= 2.53D-02 ExpMax= 1.53D+04 ExpMxC= 5.22D+02 IAcc=3 IRadAn=         5 AccDes= 0.00D+00
 Harris functional with IExCor= 1009 and IRadAn=       5 diagonalized for initial guess.
 HarFok:  IExCor= 1009 AccDes= 0.00D+00 IRadAn=         5 IDoV= 1 UseB2=F ITyADJ=14
 ICtDFT=  3500011 ScaDFX=  1.000000  1.000000  1.000000  1.000000
 FoFCou: FMM=F IPFlag=           0 FMFlag=      100000 FMFlg1=           0
         NFxFlg=           0 DoJE=T BraDBF=F KetDBF=T FulRan=T
         wScrn=  0.000000 ICntrl=       500 IOpCl=  0 I1Cent=   200000004 NGrid=           0
         NMat0=    1 NMatS0=      1 NMatT0=    0 NMatD0=    1 NMtDS0=    0 NMtDT0=    0
 Petite list used in FoFCou.
 Requested convergence on RMS density matrix=1.00D-08 within 128 cycles.
 Requested convergence on MAX density matrix=1.00D-06.
 Requested convergence on             energy=1.00D-06.
 No special actions if energy rises.
 SCF Done:  E(RM062X) =  -516.632191213     A.U. after   14 cycles
            NFock= 14  Conv=0.27D-08     -V/T= 2.0035

 **********************************************************************

            Population analysis using the SCF Density.

 **********************************************************************

 Orbital symmetries:
       Occupied  (A) (A) (A) (A) (A) (A) (A) (A) (A) (A) (A) (A)
                 (A) (A) (A) (A) (A) (A) (A) (A) (A) (A) (A) (A)
                 (A) (A) (A) (A) (A) (A) (A) (A) (A) (A) (A) (A)
                 (A) (A) (A) (A) (A)
       Virtual   (A) (A) (A) (A) (A) (A) (A) (A) (A) (A) (A) (A)
                 (A) (A) (A) (A) (A) (A) (A) (A) (A) (A) (A) (A)
                 (A) (A) (A) (A) (A) (A) (A) (A) (A) (A) (A) (A)
                 (A) (A) (A) (A) (A) (A) (A) (A) (A) (A) (A) (A)
                 (A) (A) (A) (A) (A) (A) (A) (A) (A) (A) (A) (A)
                 (A) (A) (A) (A) (A) (A) (A) (A) (A) (A) (A) (A)
                 (A) (A) (A) (A) (A) (A) (A) (A) (A) (A) (A) (A)
                 (A) (A) (A) (A) (A) (A) (A) (A) (A) (A) (A) (A)
                 (A) (A) (A) (A) (A) (A) (A) (A) (A) (A) (A) (A)
                 (A) (A) (A) (A) (A) (A) (A) (A) (A) (A) (A) (A)
                 (A) (A) (A) (A) (A) (A) (A) (A) (A) (A) (A) (A)
                 (A) (A) (A) (A) (A) (A) (A) (A) (A) (A) (A) (A)
                 (A) (A) (A) (A) (A) (A) (A) (A) (A) (A) (A) (A)
                 (A) (A) (A) (A) (A) (A) (A) (A) (A) (A) (A) (A)
                 (A) (A) (A) (A) (A) (A) (A) (A) (A) (A) (A) (A)
                 (A) (A) (A) (A) (A) (A) (A) (A) (A) (A) (A) (A)
                 (A) (A) (A) (A) (A) (A) (A) (A) (A) (A) (A) (A)
                 (A) (A) (A) (A) (A) (A) (A) (A) (A) (A) (A) (A)
                 (A) (A) (A) (A) (A) (A) (A) (A) (A) (A) (A) (A)
                 (A) (A) (A) (A) (A) (A) (A) (A) (A) (A) (A) (A)
                 (A) (A) (A) (A) (A) (A) (A) (A) (A) (A) (A) (A)
                 (A) (A) (A) (A) (A) (A) (A) (A) (A) (A) (A) (A)
                 (A) (A) (A) (A) (A) (A) (A) (A) (A) (A) (A) (A)
                 (A) (A) (A) (A) (A) (A) (A) (A) (A) (A) (A) (A)
                 (A) (A) (A) (A) (A) (A) (A) (A) (A) (A) (A) (A)
                 (A) (A) (A) (A) (A) (A) (A) (A) (A) (A) (A) (A)
                 (A) (A) (A) (A) (A) (A) (A) (A) (A) (A) (A) (A)
                 (A) (A) (A) (A) (A) (A) (A) (A) (A) (A) (A) (A)
                 (A) (A) (A) (A) (A) (A) (A) (A) (A) (A) (A) (A)
                 (A) (A) (A) (A) (A) (A) (A) (A) (A) (A) (A) (A)
                 (A) (A) (A) (A) (A) (A) (A) (A) (A) (A) (A) (A)
                 (A) (A) (A) (A) (A) (A) (A) (A) (A) (A) (A) (A)
                 (A) (A) (A) (A) (A) (A) (A) (A) (A) (A) (A) (A)
                 (A) (A) (A) (A) (A) (A) (A) (A) (A) (A) (A) (A)
                 (A) (A) (A) (A) (A) (A) (A) (A) (A) (A) (A) (A)
                 (A) (A) (A) (A) (A) (A) (A) (A) (A) (A) (A) (A)
                 (A) (A) (A) (A) (A) (A) (A) (A) (A) (A) (A) (A)
                 (A) (A) (A) (A) (A) (A) (A) (A) (A) (A) (A) (A)
                 (A) (A) (A) (A) (A) (A) (A) (A) (A) (A) (A) (A)
                 (A) (A) (A) (A) (A) (A) (A) (A) (A) (A) (A) (A)
                 (A) (A) (A) (A) (A) (A) (A) (A) (A) (A) (A) (A)
                 (A) (A) (A) (A) (A) (A) (A) (A) (A) (A) (A) (A)
                 (A) (A) (A) (A) (A) (A) (A) (A) (A) (A) (A) (A)
                 (A) (A) (A) (A) (A) (A) (A) (A) (A) (A) (A) (A)
                 (A) (A) (A) (A) (A) (A) (A) (A) (A) (A) (A) (A)
                 (A) (A) (A) (A) (A) (A) (A) (A) (A) (A) (A) (A)
                 (A) (A) (A) (A) (A) (A) (A) (A) (A) (A) (A) (A)
                 (A) (A) (A) (A) (A) (A) (A) (A) (A) (A) (A) (A)
                 (A) (A) (A) (A) (A) (A) (A) (A) (A) (A) (A) (A)
                 (A) (A) (A) (A) (A) (A) (A) (A) (A) (A) (A) (A)
                 (A) (A) (A) (A) (A) (A) (A) (A) (A) (A) (A) (A)
                 (A) (A) (A) (A) (A) (A) (A) (A) (A) (A) (A) (A)
                 (A) (A) (A) (A) (A) (A) (A) (A) (A) (A) (A) (A)
                 (A) (A) (A) (A) (A) (A) (A) (A) (A) (A) (A) (A)
                 (A) (A) (A) (A) (A) (A) (A) (A) (A) (A) (A) (A)
                 (A) (A) (A) (A) (A) (A) (A) (A) (A) (A) (A) (A)
                 (A) (A) (A) (A) (A) (A) (A) (A) (A) (A) (A) (A)
                 (A) (A) (A) (A) (A) (A) (A) (A) (A) (A) (A) (A)
                 (A) (A) (A) (A) (A) (A) (A) (A) (A) (A) (A) (A)
                 (A) (A) (A) (A) (A) (A) (A) (A)
 The electronic state is 1-A.
 Alpha  occ. eigenvalues --  -19.65132 -19.57727 -14.81035 -10.64601 -10.59947
 Alpha  occ. eigenvalues --  -10.56472 -10.55519 -10.55207 -10.55202 -10.50541
 Alpha  occ. eigenvalues --  -10.50342  -1.21428  -1.16899  -1.10780  -0.93260
 Alpha  occ. eigenvalues --   -0.90137  -0.83004  -0.81723  -0.75768  -0.73828
 Alpha  occ. eigenvalues --   -0.65622  -0.64803  -0.58295  -0.57726  -0.55103
 Alpha  occ. eigenvalues --   -0.53986  -0.52062  -0.50067  -0.49282  -0.48515
 Alpha  occ. eigenvalues --   -0.48464  -0.47142  -0.46549  -0.45138  -0.45106
 Alpha  occ. eigenvalues --   -0.42877  -0.41674  -0.37929  -0.33121  -0.30681
 Alpha  occ. eigenvalues --   -0.26450
 Alpha virt. eigenvalues --   -0.01610  -0.00144   0.00454   0.00548   0.01625
 Alpha virt. eigenvalues --    0.02295   0.02299   0.02498   0.02573   0.03321
 Alpha virt. eigenvalues --    0.03996   0.04704   0.05602   0.06199   0.06587
 Alpha virt. eigenvalues --    0.07146   0.07314   0.07476   0.07527   0.07764
 Alpha virt. eigenvalues --    0.08543   0.08852   0.09049   0.09207   0.09981
 Alpha virt. eigenvalues --    0.10005   0.10427   0.10724   0.11002   0.11484
 Alpha virt. eigenvalues --    0.11698   0.11745   0.12524   0.13140   0.13310
 Alpha virt. eigenvalues --    0.13412   0.13945   0.14362   0.14654   0.15380
 Alpha virt. eigenvalues --    0.15794   0.16312   0.17070   0.18071   0.18438
 Alpha virt. eigenvalues --    0.18547   0.18623   0.19247   0.19377   0.19775
 Alpha virt. eigenvalues --    0.19906   0.20191   0.20980   0.21581   0.22011
 Alpha virt. eigenvalues --    0.22017   0.23389   0.23515   0.24018   0.24598
 Alpha virt. eigenvalues --    0.25126   0.25501   0.25744   0.26161   0.26403
 Alpha virt. eigenvalues --    0.26780   0.27318   0.27741   0.27833   0.28398
 Alpha virt. eigenvalues --    0.29082   0.29784   0.29961   0.30260   0.30726
 Alpha virt. eigenvalues --    0.30895   0.31495   0.31553   0.31669   0.31821
 Alpha virt. eigenvalues --    0.32634   0.32890   0.33510   0.33532   0.34294
 Alpha virt. eigenvalues --    0.34519   0.34778   0.34869   0.35511   0.35593
 Alpha virt. eigenvalues --    0.35707   0.36853   0.37048   0.37402   0.37756
 Alpha virt. eigenvalues --    0.38554   0.38715   0.39280   0.39574   0.39815
 Alpha virt. eigenvalues --    0.40125   0.40618   0.40921   0.40961   0.42026
 Alpha virt. eigenvalues --    0.42319   0.42660   0.42832   0.43403   0.43682
 Alpha virt. eigenvalues --    0.44228   0.44504   0.45105   0.45682   0.45866
 Alpha virt. eigenvalues --    0.45922   0.46465   0.46966   0.47500   0.48195
 Alpha virt. eigenvalues --    0.48304   0.48756   0.49290   0.50025   0.50320
 Alpha virt. eigenvalues --    0.50761   0.50902   0.51407   0.52871   0.54051
 Alpha virt. eigenvalues --    0.54912   0.55395   0.55708   0.56436   0.56817
 Alpha virt. eigenvalues --    0.57127   0.57169   0.58158   0.59022   0.59651
 Alpha virt. eigenvalues --    0.60022   0.60066   0.60480   0.61429   0.62092
 Alpha virt. eigenvalues --    0.62640   0.63538   0.64283   0.64899   0.65647
 Alpha virt. eigenvalues --    0.66262   0.67496   0.68027   0.68141   0.69047
 Alpha virt. eigenvalues --    0.69557   0.70807   0.70904   0.71793   0.72031
 Alpha virt. eigenvalues --    0.72774   0.73073   0.73810   0.74028   0.74070
 Alpha virt. eigenvalues --    0.74859   0.74901   0.74912   0.75528   0.75726
 Alpha virt. eigenvalues --    0.76827   0.77408   0.78495   0.78525   0.79140
 Alpha virt. eigenvalues --    0.79239   0.79742   0.80235   0.81137   0.81163
 Alpha virt. eigenvalues --    0.81923   0.82358   0.83319   0.83837   0.83897
 Alpha virt. eigenvalues --    0.84387   0.84862   0.85420   0.85612   0.85661
 Alpha virt. eigenvalues --    0.86054   0.86484   0.87329   0.88009   0.88701
 Alpha virt. eigenvalues --    0.88773   0.89647   0.89797   0.90232   0.90538
 Alpha virt. eigenvalues --    0.91286   0.91717   0.92492   0.93249   0.93945
 Alpha virt. eigenvalues --    0.94008   0.95454   0.95566   0.95607   0.96430
 Alpha virt. eigenvalues --    0.96737   0.97978   0.98329   0.98538   0.98747
 Alpha virt. eigenvalues --    0.99807   1.00240   1.00314   1.01632   1.01940
 Alpha virt. eigenvalues --    1.02277   1.03302   1.03458   1.03476   1.04427
 Alpha virt. eigenvalues --    1.05161   1.06879   1.07205   1.08093   1.08137
 Alpha virt. eigenvalues --    1.08776   1.09009   1.09476   1.09740   1.10271
 Alpha virt. eigenvalues --    1.10530   1.11413   1.11797   1.13064   1.14965
 Alpha virt. eigenvalues --    1.15053   1.15237   1.15964   1.16133   1.17293
 Alpha virt. eigenvalues --    1.18056   1.18094   1.19727   1.19793   1.20758
 Alpha virt. eigenvalues --    1.21078   1.21511   1.22394   1.23908   1.24380
 Alpha virt. eigenvalues --    1.25276   1.25620   1.26151   1.26834   1.27625
 Alpha virt. eigenvalues --    1.28265   1.28383   1.29491   1.30042   1.30807
 Alpha virt. eigenvalues --    1.30958   1.31729   1.32123   1.32741   1.33569
 Alpha virt. eigenvalues --    1.35174   1.35284   1.35853   1.36811   1.37462
 Alpha virt. eigenvalues --    1.38560   1.38836   1.38899   1.39522   1.39550
 Alpha virt. eigenvalues --    1.40193   1.40782   1.42540   1.43227   1.43357
 Alpha virt. eigenvalues --    1.44288   1.45299   1.45421   1.46008   1.47338
 Alpha virt. eigenvalues --    1.47611   1.48143   1.48543   1.49608   1.49716
 Alpha virt. eigenvalues --    1.50737   1.51214   1.51739   1.52010   1.53230
 Alpha virt. eigenvalues --    1.54143   1.54537   1.54616   1.55066   1.55836
 Alpha virt. eigenvalues --    1.56729   1.57079   1.57501   1.59133   1.59445
 Alpha virt. eigenvalues --    1.61351   1.62185   1.62467   1.63230   1.63601
 Alpha virt. eigenvalues --    1.64635   1.65326   1.66211   1.66704   1.67232
 Alpha virt. eigenvalues --    1.67282   1.68088   1.69183   1.70154   1.70471
 Alpha virt. eigenvalues --    1.71157   1.71867   1.71970   1.72905   1.73746
 Alpha virt. eigenvalues --    1.73824   1.76562   1.76719   1.77268   1.78412
 Alpha virt. eigenvalues --    1.78675   1.79226   1.80781   1.81550   1.81655
 Alpha virt. eigenvalues --    1.82859   1.84396   1.85069   1.85903   1.87180
 Alpha virt. eigenvalues --    1.87840   1.88788   1.89060   1.90279   1.91833
 Alpha virt. eigenvalues --    1.92381   1.92857   1.93787   1.94827   1.95239
 Alpha virt. eigenvalues --    1.96136   1.97120   1.99421   2.00691   2.01880
 Alpha virt. eigenvalues --    2.02438   2.03058   2.03584   2.04338   2.04413
 Alpha virt. eigenvalues --    2.04840   2.04976   2.06014   2.06030   2.06326
 Alpha virt. eigenvalues --    2.08477   2.09484   2.09652   2.10826   2.10971
 Alpha virt. eigenvalues --    2.12520   2.13945   2.14617   2.15161   2.16772
 Alpha virt. eigenvalues --    2.17513   2.18722   2.20981   2.21538   2.22473
 Alpha virt. eigenvalues --    2.24249   2.25129   2.25546   2.26039   2.26955
 Alpha virt. eigenvalues --    2.28837   2.29855   2.31240   2.34196   2.35589
 Alpha virt. eigenvalues --    2.36515   2.37444   2.38757   2.39680   2.41285
 Alpha virt. eigenvalues --    2.42732   2.43273   2.44969   2.46473   2.47355
 Alpha virt. eigenvalues --    2.47577   2.48971   2.51323   2.52109   2.54892
 Alpha virt. eigenvalues --    2.56493   2.58571   2.60569   2.64385   2.64824
 Alpha virt. eigenvalues --    2.64978   2.67169   2.67459   2.68550   2.68788
 Alpha virt. eigenvalues --    2.70312   2.72231   2.73449   2.79194   2.79269
 Alpha virt. eigenvalues --    2.82308   2.82714   2.85143   2.85351   2.87344
 Alpha virt. eigenvalues --    2.90974   2.91854   2.92776   3.02674   3.02859
 Alpha virt. eigenvalues --    3.04691   3.06338   3.06401   3.06926   3.07879
 Alpha virt. eigenvalues --    3.09450   3.10961   3.12025   3.12468   3.14451
 Alpha virt. eigenvalues --    3.14515   3.17535   3.18934   3.20621   3.21202
 Alpha virt. eigenvalues --    3.22957   3.23733   3.25238   3.26246   3.26383
 Alpha virt. eigenvalues --    3.27775   3.29467   3.30634   3.31952   3.32542
 Alpha virt. eigenvalues --    3.33169   3.33548   3.34577   3.34912   3.37058
 Alpha virt. eigenvalues --    3.37149   3.37941   3.38354   3.39062   3.39908
 Alpha virt. eigenvalues --    3.41405   3.41745   3.43424   3.43821   3.45900
 Alpha virt. eigenvalues --    3.46336   3.46912   3.48973   3.49249   3.49735
 Alpha virt. eigenvalues --    3.50471   3.52190   3.52423   3.52904   3.54102
 Alpha virt. eigenvalues --    3.55543   3.55706   3.56365   3.56756   3.57707
 Alpha virt. eigenvalues --    3.59193   3.59650   3.60305   3.61247   3.61413
 Alpha virt. eigenvalues --    3.61961   3.63028   3.64839   3.65127   3.65842
 Alpha virt. eigenvalues --    3.66401   3.68950   3.70653   3.71047   3.71715
 Alpha virt. eigenvalues --    3.73439   3.74517   3.74634   3.75501   3.76287
 Alpha virt. eigenvalues --    3.76883   3.78097   3.79109   3.80070   3.80351
 Alpha virt. eigenvalues --    3.81638   3.82522   3.84089   3.84334   3.85392
 Alpha virt. eigenvalues --    3.87244   3.87313   3.87987   3.89387   3.90574
 Alpha virt. eigenvalues --    3.92200   3.93688   3.95267   3.95572   3.96022
 Alpha virt. eigenvalues --    3.96454   3.96890   3.98189   3.99029   4.00517
 Alpha virt. eigenvalues --    4.01878   4.03263   4.04684   4.04943   4.05971
 Alpha virt. eigenvalues --    4.06805   4.07757   4.09221   4.11515   4.11763
 Alpha virt. eigenvalues --    4.12749   4.14526   4.15865   4.17041   4.17970
 Alpha virt. eigenvalues --    4.19476   4.20255   4.21583   4.21825   4.24558
 Alpha virt. eigenvalues --    4.26138   4.27601   4.27992   4.28539   4.28865
 Alpha virt. eigenvalues --    4.30117   4.30336   4.32122   4.34812   4.36688
 Alpha virt. eigenvalues --    4.38457   4.39285   4.40936   4.41515   4.43721
 Alpha virt. eigenvalues --    4.43855   4.45819   4.46226   4.46262   4.46312
 Alpha virt. eigenvalues --    4.46737   4.48142   4.49171   4.51630   4.53533
 Alpha virt. eigenvalues --    4.54471   4.55858   4.56922   4.59266   4.60557
 Alpha virt. eigenvalues --    4.60931   4.61733   4.63569   4.64488   4.65466
 Alpha virt. eigenvalues --    4.66865   4.69898   4.71238   4.71470   4.73137
 Alpha virt. eigenvalues --    4.73634   4.75948   4.77220   4.79201   4.80693
 Alpha virt. eigenvalues --    4.80866   4.83573   4.83817   4.84568   4.84850
 Alpha virt. eigenvalues --    4.86900   4.87633   4.88882   4.89262   4.91270
 Alpha virt. eigenvalues --    4.93015   4.94406   4.94468   4.97369   4.98975
 Alpha virt. eigenvalues --    5.01490   5.04451   5.06545   5.06956   5.07682
 Alpha virt. eigenvalues --    5.07892   5.10936   5.15025   5.15158   5.16242
 Alpha virt. eigenvalues --    5.16475   5.16998   5.19317   5.21166   5.22089
 Alpha virt. eigenvalues --    5.24612   5.27194   5.27720   5.30522   5.31593
 Alpha virt. eigenvalues --    5.33624   5.36406   5.37564   5.43967   5.48434
 Alpha virt. eigenvalues --    5.50438   5.51715   5.55149   5.57322   5.60357
 Alpha virt. eigenvalues --    5.61253   5.61831   5.66758   5.67346   5.68804
 Alpha virt. eigenvalues --    5.70037   5.72077   5.74077   5.74879   5.78372
 Alpha virt. eigenvalues --    5.78493   5.80502   5.85383   5.87901   5.87959
 Alpha virt. eigenvalues --    5.94859   6.00277   6.03652   6.16925   6.20005
 Alpha virt. eigenvalues --    6.25299   6.26341   6.27099   6.27404   6.27597
 Alpha virt. eigenvalues --    6.30080   6.30480   6.38618   6.41267   6.41447
 Alpha virt. eigenvalues --    6.42253   6.46420   6.47084   6.52701   6.56123
 Alpha virt. eigenvalues --    6.56841   6.59166   6.59633   6.69934   6.71995
 Alpha virt. eigenvalues --    6.74629   6.75858   6.82252   6.83846   6.86359
 Alpha virt. eigenvalues --    6.87106   6.89330   6.92725   6.96359   7.11071
 Alpha virt. eigenvalues --    7.12985   7.16336   7.19353   7.24648   7.35743
 Alpha virt. eigenvalues --    7.42348   7.57909   7.71233   7.91048   8.10807
 Alpha virt. eigenvalues --   15.58803  16.15379  17.07515  17.84433  18.39839
 Alpha virt. eigenvalues --   18.71274  19.45772  20.02059  21.03308  21.57537
 Alpha virt. eigenvalues --   22.26423
          Condensed to atoms (all electrons):
               1          2          3          4          5          6
     1  C    6.709658  -0.504570  -0.225293  -0.055275   0.046505  -0.010772
     2  C   -0.504570   9.886330  -0.299284  -0.336385  -1.581221   0.056767
     3  N   -0.225293  -0.299284   8.197468   0.489026  -0.138298  -0.254621
     4  C   -0.055275  -0.336385   0.489026   6.474504  -0.319344  -0.035096
     5  C    0.046505  -1.581221  -0.138298  -0.319344   8.572314  -0.478399
     6  C   -0.010772   0.056767  -0.254621  -0.035096  -0.478399   6.382465
     7  C    0.171821  -0.365344  -0.610716   0.000445  -0.246339  -0.197696
     8  C   -0.164972  -0.593220  -0.325013   0.032816  -0.131092  -0.027858
     9  C   -0.235547  -0.150733   0.202599   0.021694  -0.095048   0.015889
    10  O    0.017764   0.093485  -0.031460  -0.002771  -0.014255   0.005678
    11  O    0.048189   0.020078  -0.039024  -0.004935  -0.007449   0.002758
    12  H    0.516559  -0.229693   0.000213  -0.015179   0.013479  -0.000298
    13  H    0.517712  -0.230136  -0.000004  -0.015273   0.013462  -0.000296
    14  H    0.397889  -0.004542  -0.039367  -0.022738   0.022326   0.003387
    15  H    0.013086  -0.118926   0.032740   0.302399   0.099714  -0.022499
    16  H   -0.028235   0.051888  -0.030395   0.403905  -0.070314  -0.002126
    17  H   -0.028227   0.052782  -0.030182   0.403715  -0.070559  -0.002215
    18  H   -0.001564   0.054803   0.013388   0.002742  -0.113823   0.545926
    19  H    0.002321  -0.031312  -0.068943  -0.017674  -0.039902   0.453749
    20  H    0.002277  -0.031588  -0.069194  -0.017926  -0.039850   0.453813
    21  H   -0.005650  -0.041148   0.069842   0.001585  -0.112168  -0.087834
    22  H   -0.022363  -0.019769   0.010274   0.000673   0.001347   0.000163
               7          8          9         10         11         12
     1  C    0.171821  -0.164972  -0.235547   0.017764   0.048189   0.516559
     2  C   -0.365344  -0.593220  -0.150733   0.093485   0.020078  -0.229693
     3  N   -0.610716  -0.325013   0.202599  -0.031460  -0.039024   0.000213
     4  C    0.000445   0.032816   0.021694  -0.002771  -0.004935  -0.015179
     5  C   -0.246339  -0.131092  -0.095048  -0.014255  -0.007449   0.013479
     6  C   -0.197696  -0.027858   0.015889   0.005678   0.002758  -0.000298
     7  C    8.619227  -0.263141  -0.447288  -0.023509  -0.000804   0.013620
     8  C   -0.263141   7.092319  -0.784942  -0.096610  -0.033550  -0.040698
     9  C   -0.447288  -0.784942   7.437252  -0.130758  -0.066278  -0.009061
    10  O   -0.023509  -0.096610  -0.130758   9.365914  -0.122278   0.003712
    11  O   -0.000804  -0.033550  -0.066278  -0.122278   8.576070   0.003227
    12  H    0.013620  -0.040698  -0.009061   0.003712   0.003227   0.522313
    13  H    0.013558  -0.040648  -0.009386   0.003691   0.003022   0.042411
    14  H    0.005444   0.005356  -0.008831  -0.000579  -0.003964  -0.073851
    15  H   -0.005554   0.008155  -0.000264  -0.000321  -0.000150   0.003565
    16  H    0.006371  -0.011273   0.002999   0.000210  -0.000120  -0.009103
    17  H    0.006523  -0.011584   0.002998   0.000204  -0.000130  -0.010634
    18  H   -0.076866  -0.005549  -0.001611   0.000267   0.000441  -0.000052
    19  H   -0.031891   0.001923   0.000685   0.000121  -0.000010   0.000128
    20  H   -0.031656   0.002072   0.000685   0.000124  -0.000011   0.000079
    21  H    0.159151   0.075057   0.016828  -0.010514   0.005343   0.000051
    22  H   -0.020087  -0.000169   0.078930  -0.100814   0.172408  -0.003657
              13         14         15         16         17         18
     1  C    0.517712   0.397889   0.013086  -0.028235  -0.028227  -0.001564
     2  C   -0.230136  -0.004542  -0.118926   0.051888   0.052782   0.054803
     3  N   -0.000004  -0.039367   0.032740  -0.030395  -0.030182   0.013388
     4  C   -0.015273  -0.022738   0.302399   0.403905   0.403715   0.002742
     5  C    0.013462   0.022326   0.099714  -0.070314  -0.070559  -0.113823
     6  C   -0.000296   0.003387  -0.022499  -0.002126  -0.002215   0.545926
     7  C    0.013558   0.005444  -0.005554   0.006371   0.006523  -0.076866
     8  C   -0.040648   0.005356   0.008155  -0.011273  -0.011584  -0.005549
     9  C   -0.009386  -0.008831  -0.000264   0.002999   0.002998  -0.001611
    10  O    0.003691  -0.000579  -0.000321   0.000210   0.000204   0.000267
    11  O    0.003022  -0.003964  -0.000150  -0.000120  -0.000130   0.000441
    12  H    0.042411  -0.073851   0.003565  -0.009103  -0.010634  -0.000052
    13  H    0.521520  -0.073896   0.003591  -0.010606  -0.009299  -0.000053
    14  H   -0.073896   0.625481   0.002787  -0.004786  -0.005030  -0.000296
    15  H    0.003591   0.002787   0.541907  -0.097974  -0.099218  -0.006500
    16  H   -0.010606  -0.004786  -0.097974   0.435291   0.093529   0.003046
    17  H   -0.009299  -0.005030  -0.099218   0.093529   0.438416   0.003052
    18  H   -0.000053  -0.000296  -0.006500   0.003046   0.003052   0.586920
    19  H    0.000083   0.000920   0.000966  -0.004921  -0.004356  -0.050443
    20  H    0.000127   0.000916   0.000945  -0.004374  -0.004964  -0.050904
    21  H    0.000046  -0.000899  -0.000756  -0.000108  -0.000111  -0.029036
    22  H   -0.003598  -0.000219   0.000013   0.000042   0.000044  -0.000037
              19         20         21         22
     1  C    0.002321   0.002277  -0.005650  -0.022363
     2  C   -0.031312  -0.031588  -0.041148  -0.019769
     3  N   -0.068943  -0.069194   0.069842   0.010274
     4  C   -0.017674  -0.017926   0.001585   0.000673
     5  C   -0.039902  -0.039850  -0.112168   0.001347
     6  C    0.453749   0.453813  -0.087834   0.000163
     7  C   -0.031891  -0.031656   0.159151  -0.020087
     8  C    0.001923   0.002072   0.075057  -0.000169
     9  C    0.000685   0.000685   0.016828   0.078930
    10  O    0.000121   0.000124  -0.010514  -0.100814
    11  O   -0.000010  -0.000011   0.005343   0.172408
    12  H    0.000128   0.000079   0.000051  -0.003657
    13  H    0.000083   0.000127   0.000046  -0.003598
    14  H    0.000920   0.000916  -0.000899  -0.000219
    15  H    0.000966   0.000945  -0.000756   0.000013
    16  H   -0.004921  -0.004374  -0.000108   0.000042
    17  H   -0.004356  -0.004964  -0.000111   0.000044
    18  H   -0.050443  -0.050904  -0.029036  -0.000037
    19  H    0.519536   0.023917  -0.009704   0.000006
    20  H    0.023917   0.520147  -0.009678   0.000006
    21  H   -0.009704  -0.009678   0.698178   0.000848
    22  H    0.000006   0.000006   0.000848   0.628759
 Mulliken charges:
               1
     1  C   -1.161313
     2  C    0.321739
     3  N    0.146245
     4  C   -1.290907
     5  C    0.688916
     6  C   -0.800884
     7  C   -0.675268
     8  C    1.312621
     9  C    0.159188
    10  O   -0.957301
    11  O   -0.552834
    12  H    0.272867
    13  H    0.273972
    14  H    0.174493
    15  H    0.342296
    16  H    0.277055
    17  H    0.275246
    18  H    0.126149
    19  H    0.254803
    20  H    0.255037
    21  H    0.280678
    22  H    0.277199
 Sum of Mulliken charges =   0.00000
 Mulliken charges with hydrogens summed into heavy atoms:
               1
     1  C   -0.439980
     2  C    0.321739
     3  N    0.146245
     4  C   -0.396310
     5  C    0.688916
     6  C   -0.164894
     7  C   -0.394590
     8  C    1.312621
     9  C    0.159188
    10  O   -0.957301
    11  O   -0.275635
 Electronic spatial extent (au):  <R**2>=           1815.7606
 Charge=              0.0000 electrons
 Dipole moment (field-independent basis, Debye):
    X=             -4.0664    Y=              3.4978    Z=             -0.0009  Tot=              5.3638
 Quadrupole moment (field-independent basis, Debye-Ang):
   XX=            -57.9551   YY=            -66.0130   ZZ=            -66.3293
   XY=              4.9645   XZ=             -0.0005   YZ=              0.0033
 Traceless Quadrupole moment (field-independent basis, Debye-Ang):
   XX=              5.4773   YY=             -2.5805   ZZ=             -2.8968
   XY=              4.9645   XZ=             -0.0005   YZ=              0.0033
 Octapole moment (field-independent basis, Debye-Ang**2):
  XXX=             20.2343  YYY=              8.6132  ZZZ=              0.0004  XYY=            -19.4615
  XXY=             20.6712  XXZ=             -0.0154  XZZ=              4.7798  YZZ=              3.5252
  YYZ=             -0.0037  XYZ=              0.0106
 Hexadecapole moment (field-independent basis, Debye-Ang**3):
 XXXX=          -1293.5995 YYYY=           -773.1156 ZZZZ=            -89.8368 XXXY=             34.2554
 XXXZ=              0.0119 YYYX=             20.6406 YYYZ=             -0.0111 ZZZX=             -0.0230
 ZZZY=             -0.0041 XXYY=           -414.4431 XXZZ=           -261.5173 YYZZ=           -147.1036
 XXYZ=              0.0331 YYXZ=             -0.0037 ZZXY=             -3.6643
 N-N= 6.330426808632D+02 E-N=-2.471615182208D+03  KE= 5.148107119699D+02
 ******************************Gaussian NBO Version 3.1******************************
             N A T U R A L   A T O M I C   O R B I T A L   A N D
          N A T U R A L   B O N D   O R B I T A L   A N A L Y S I S
 ******************************Gaussian NBO Version 3.1******************************
       /RESON  / : Allow strongly delocalized NBO set

 Analyzing the SCF density

 Job title: 10                                                              

 Storage needed:   1731399 in NPA,   2307131 in NBO (********** available)
 GSVD:  LWork=       24839 too small for GESVD, short by     1072938 words or     1072938 for optimal perf.


 NATURAL POPULATIONS:  Natural atomic orbital occupancies 
                                                          
   NAO  Atom  No  lang   Type(AO)    Occupancy      Energy
 ----------------------------------------------------------
     1    C    1  S      Cor( 1S)     1.99948     -10.41188
     2    C    1  S      Val( 2S)     1.10824      -0.31081
     3    C    1  S      Ryd( 3S)     0.00068       1.24848
     4    C    1  S      Ryd( 5S)     0.00005       6.81835
     5    C    1  S      Ryd( 4S)     0.00002       1.33558
     6    C    1  px     Val( 2p)     1.20462      -0.12594
     7    C    1  px     Ryd( 3p)     0.00114       1.33686
     8    C    1  px     Ryd( 5p)     0.00009       1.83062
     9    C    1  px     Ryd( 4p)     0.00002       1.53939
    10    C    1  py     Val( 2p)     1.07077      -0.10362
    11    C    1  py     Ryd( 3p)     0.00076       1.29780
    12    C    1  py     Ryd( 5p)     0.00004       1.72263
    13    C    1  py     Ryd( 4p)     0.00001       1.53738
    14    C    1  pz     Val( 2p)     1.23248      -0.13104
    15    C    1  pz     Ryd( 4p)     0.00025       1.24827
    16    C    1  pz     Ryd( 5p)     0.00005       1.52496
    17    C    1  pz     Ryd( 3p)     0.00002       1.23293
    18    C    1  dxy    Ryd( 4d)     0.00146       1.88496
    19    C    1  dxy    Ryd( 5d)     0.00004       3.49398
    20    C    1  dxy    Ryd( 3d)     0.00003       1.58050
    21    C    1  dxz    Ryd( 4d)     0.00190       1.66440
    22    C    1  dxz    Ryd( 5d)     0.00002       3.47946
    23    C    1  dxz    Ryd( 3d)     0.00001       1.54274
    24    C    1  dyz    Ryd( 4d)     0.00069       1.53582
    25    C    1  dyz    Ryd( 5d)     0.00002       3.20320
    26    C    1  dyz    Ryd( 3d)     0.00002       1.24443
    27    C    1  dx2y2  Ryd( 4d)     0.00084       1.85040
    28    C    1  dx2y2  Ryd( 5d)     0.00006       3.36773
    29    C    1  dx2y2  Ryd( 3d)     0.00002       1.31199
    30    C    1  dz2    Ryd( 4d)     0.00204       1.85862
    31    C    1  dz2    Ryd( 5d)     0.00005       3.60315
    32    C    1  dz2    Ryd( 3d)     0.00002       1.73830
    33    C    1  f(0)   Ryd( 5f)     0.00000       3.90426
    34    C    1  f(0)   Ryd( 4f)     0.00001       2.07867
    35    C    1  f(C1)  Ryd( 5f)     0.00016       4.22504
    36    C    1  f(C1)  Ryd( 4f)     0.00003       3.41767
    37    C    1  f(S1)  Ryd( 5f)     0.00005       3.92584
    38    C    1  f(S1)  Ryd( 4f)     0.00003       3.77385
    39    C    1  f(C2)  Ryd( 5f)     0.00001       3.85573
    40    C    1  f(C2)  Ryd( 4f)     0.00002       2.58711
    41    C    1  f(S2)  Ryd( 5f)     0.00002       3.91090
    42    C    1  f(S2)  Ryd( 4f)     0.00002       2.24746
    43    C    1  f(C3)  Ryd( 5f)     0.00006       4.07829
    44    C    1  f(C3)  Ryd( 4f)     0.00004       3.09986
    45    C    1  f(S3)  Ryd( 5f)     0.00004       4.10951
    46    C    1  f(S3)  Ryd( 4f)     0.00004       2.73228
 
    47    C    2  S      Cor( 1S)     1.99897     -10.40279
    48    C    2  S      Val( 2S)     0.81213      -0.06826
    49    C    2  S      Ryd( 4S)     0.00132       1.78622
    50    C    2  S      Ryd( 5S)     0.00012       3.01785
    51    C    2  S      Ryd( 3S)     0.00001       1.68985
    52    C    2  px     Val( 2p)     0.87992      -0.00180
    53    C    2  px     Ryd( 4p)     0.00354       1.84811
    54    C    2  px     Ryd( 5p)     0.00007       2.86648
    55    C    2  px     Ryd( 3p)     0.00005       1.11546
    56    C    2  py     Val( 2p)     1.06010      -0.06276
    57    C    2  py     Ryd( 5p)     0.00422       2.35355
    58    C    2  py     Ryd( 4p)     0.00007       2.28921
    59    C    2  py     Ryd( 3p)     0.00002       1.15871
    60    C    2  pz     Val( 2p)     1.02429      -0.11156
    61    C    2  pz     Ryd( 4p)     0.00443       1.07686
    62    C    2  pz     Ryd( 5p)     0.00014       1.61183
    63    C    2  pz     Ryd( 3p)     0.00009       0.67460
    64    C    2  dxy    Ryd( 4d)     0.00053       3.46956
    65    C    2  dxy    Ryd( 3d)     0.00046       3.25128
    66    C    2  dxy    Ryd( 5d)     0.00002       4.74184
    67    C    2  dxz    Ryd( 4d)     0.00073       2.25131
    68    C    2  dxz    Ryd( 3d)     0.00016       2.05776
    69    C    2  dxz    Ryd( 5d)     0.00006       2.82434
    70    C    2  dyz    Ryd( 4d)     0.00041       2.36305
    71    C    2  dyz    Ryd( 3d)     0.00018       2.02436
    72    C    2  dyz    Ryd( 5d)     0.00004       3.02734
    73    C    2  dx2y2  Ryd( 4d)     0.00071       3.05904
    74    C    2  dx2y2  Ryd( 3d)     0.00063       3.02975
    75    C    2  dx2y2  Ryd( 5d)     0.00008       4.45084
    76    C    2  dz2    Ryd( 4d)     0.00055       2.97197
    77    C    2  dz2    Ryd( 3d)     0.00055       2.17561
    78    C    2  dz2    Ryd( 5d)     0.00004       5.36595
    79    C    2  f(0)   Ryd( 4f)     0.00023       1.50450
    80    C    2  f(0)   Ryd( 5f)     0.00020       3.68664
    81    C    2  f(C1)  Ryd( 4f)     0.00030       1.80640
    82    C    2  f(C1)  Ryd( 5f)     0.00008       3.98203
    83    C    2  f(S1)  Ryd( 4f)     0.00065       1.97808
    84    C    2  f(S1)  Ryd( 5f)     0.00023       3.82904
    85    C    2  f(C2)  Ryd( 4f)     0.00095       1.38395
    86    C    2  f(C2)  Ryd( 5f)     0.00001       3.76143
    87    C    2  f(S2)  Ryd( 4f)     0.00049       1.42723
    88    C    2  f(S2)  Ryd( 5f)     0.00001       3.87589
    89    C    2  f(C3)  Ryd( 4f)     0.00094       3.11733
    90    C    2  f(C3)  Ryd( 5f)     0.00008       4.58242
    91    C    2  f(S3)  Ryd( 4f)     0.00274       2.37014
    92    C    2  f(S3)  Ryd( 5f)     0.00008       4.82027
 
    93    N    3  S      Cor( 1S)     1.99902     -14.58758
    94    N    3  S      Val( 2S)     1.13669      -0.51951
    95    N    3  S      Ryd( 4S)     0.00090       2.14954
    96    N    3  S      Ryd( 5S)     0.00002      10.77909
    97    N    3  S      Ryd( 3S)     0.00001       2.00397
    98    N    3  px     Val( 2p)     1.31529      -0.30383
    99    N    3  px     Ryd( 3p)     0.00234       2.71621
   100    N    3  px     Ryd( 5p)     0.00005       3.78499
   101    N    3  px     Ryd( 4p)     0.00004       3.13158
   102    N    3  py     Val( 2p)     1.32188      -0.30347
   103    N    3  py     Ryd( 3p)     0.00243       2.60798
   104    N    3  py     Ryd( 5p)     0.00006       3.93468
   105    N    3  py     Ryd( 4p)     0.00004       3.16871
   106    N    3  pz     Val( 2p)     1.51951      -0.30700
   107    N    3  pz     Ryd( 3p)     0.00389       0.87260
   108    N    3  pz     Ryd( 5p)     0.00014       2.34769
   109    N    3  pz     Ryd( 4p)     0.00001       2.25312
   110    N    3  dxy    Ryd( 3d)     0.00059       4.55390
   111    N    3  dxy    Ryd( 4d)     0.00035       4.92047
   112    N    3  dxy    Ryd( 5d)     0.00008       5.23773
   113    N    3  dxz    Ryd( 3d)     0.00067       2.17284
   114    N    3  dxz    Ryd( 4d)     0.00021       3.21641
   115    N    3  dxz    Ryd( 5d)     0.00008       3.40542
   116    N    3  dyz    Ryd( 3d)     0.00096       2.16441
   117    N    3  dyz    Ryd( 4d)     0.00010       3.21885
   118    N    3  dyz    Ryd( 5d)     0.00007       3.52025
   119    N    3  dx2y2  Ryd( 5d)     0.00184       5.77168
   120    N    3  dx2y2  Ryd( 4d)     0.00033       5.21952
   121    N    3  dx2y2  Ryd( 3d)     0.00007       4.80238
   122    N    3  dz2    Ryd( 3d)     0.00113       3.13259
   123    N    3  dz2    Ryd( 4d)     0.00016       3.35009
   124    N    3  dz2    Ryd( 5d)     0.00009       5.28598
   125    N    3  f(0)   Ryd( 4f)     0.00214       1.78344
   126    N    3  f(0)   Ryd( 5f)     0.00010       4.96076
   127    N    3  f(C1)  Ryd( 4f)     0.00166       2.61098
   128    N    3  f(C1)  Ryd( 5f)     0.00006       5.05379
   129    N    3  f(S1)  Ryd( 4f)     0.00172       2.52091
   130    N    3  f(S1)  Ryd( 5f)     0.00007       5.05786
   131    N    3  f(C2)  Ryd( 4f)     0.00025       1.72863
   132    N    3  f(C2)  Ryd( 5f)     0.00007       5.04027
   133    N    3  f(S2)  Ryd( 4f)     0.00057       1.66402
   134    N    3  f(S2)  Ryd( 5f)     0.00006       4.99708
   135    N    3  f(C3)  Ryd( 4f)     0.00093       2.57218
   136    N    3  f(C3)  Ryd( 5f)     0.00018       5.56876
   137    N    3  f(S3)  Ryd( 4f)     0.00097       3.08865
   138    N    3  f(S3)  Ryd( 5f)     0.00017       5.52188
 
   139    C    4  S      Cor( 1S)     1.99945     -10.46978
   140    C    4  S      Val( 2S)     1.08950      -0.32886
   141    C    4  S      Ryd( 4S)     0.00054       1.23101
   142    C    4  S      Ryd( 5S)     0.00006       4.46116
   143    C    4  S      Ryd( 3S)     0.00001       1.05621
   144    C    4  px     Val( 2p)     1.01652      -0.11978
   145    C    4  px     Ryd( 4p)     0.00170       1.30567
   146    C    4  px     Ryd( 5p)     0.00009       1.64460
   147    C    4  px     Ryd( 3p)     0.00002       1.30101
   148    C    4  py     Val( 2p)     1.06297      -0.13425
   149    C    4  py     Ryd( 4p)     0.00169       1.24305
   150    C    4  py     Ryd( 5p)     0.00007       1.67818
   151    C    4  py     Ryd( 3p)     0.00001       1.19583
   152    C    4  pz     Val( 2p)     1.20935      -0.15751
   153    C    4  pz     Ryd( 4p)     0.00058       1.12467
   154    C    4  pz     Ryd( 5p)     0.00009       1.80193
   155    C    4  pz     Ryd( 3p)     0.00002       0.98096
   156    C    4  dxy    Ryd( 4d)     0.00152       2.36642
   157    C    4  dxy    Ryd( 5d)     0.00006       3.77916
   158    C    4  dxy    Ryd( 3d)     0.00001       1.43377
   159    C    4  dxz    Ryd( 4d)     0.00047       1.58637
   160    C    4  dxz    Ryd( 5d)     0.00002       3.17336
   161    C    4  dxz    Ryd( 3d)     0.00003       1.17284
   162    C    4  dyz    Ryd( 4d)     0.00227       1.69051
   163    C    4  dyz    Ryd( 5d)     0.00005       3.54088
   164    C    4  dyz    Ryd( 3d)     0.00001       1.38976
   165    C    4  dx2y2  Ryd( 4d)     0.00036       1.86052
   166    C    4  dx2y2  Ryd( 5d)     0.00007       3.52315
   167    C    4  dx2y2  Ryd( 3d)     0.00002       1.35551
   168    C    4  dz2    Ryd( 4d)     0.00158       1.96096
   169    C    4  dz2    Ryd( 5d)     0.00004       3.66796
   170    C    4  dz2    Ryd( 3d)     0.00003       1.58530
   171    C    4  f(0)   Ryd( 5f)     0.00001       3.79085
   172    C    4  f(0)   Ryd( 4f)     0.00001       2.30261
   173    C    4  f(C1)  Ryd( 5f)     0.00003       3.82690
   174    C    4  f(C1)  Ryd( 4f)     0.00004       3.32170
   175    C    4  f(S1)  Ryd( 5f)     0.00015       4.38211
   176    C    4  f(S1)  Ryd( 4f)     0.00003       3.42081
   177    C    4  f(C2)  Ryd( 5f)     0.00002       3.75485
   178    C    4  f(C2)  Ryd( 4f)     0.00001       2.91599
   179    C    4  f(S2)  Ryd( 5f)     0.00001       3.75540
   180    C    4  f(S2)  Ryd( 4f)     0.00005       2.39351
   181    C    4  f(C3)  Ryd( 5f)     0.00002       3.93231
   182    C    4  f(C3)  Ryd( 4f)     0.00003       2.86856
   183    C    4  f(S3)  Ryd( 5f)     0.00004       4.08241
   184    C    4  f(S3)  Ryd( 4f)     0.00004       2.95545
 
   185    C    5  S      Cor( 1S)     1.99896     -10.38958
   186    C    5  S      Val( 2S)     0.81576      -0.07148
   187    C    5  S      Ryd( 3S)     0.00120       1.69586
   188    C    5  S      Ryd( 5S)     0.00009       2.94158
   189    C    5  S      Ryd( 4S)     0.00001       1.77350
   190    C    5  px     Val( 2p)     1.08571      -0.07547
   191    C    5  px     Ryd( 4p)     0.00417       2.22543
   192    C    5  px     Ryd( 5p)     0.00004       2.83688
   193    C    5  px     Ryd( 3p)     0.00003       0.71682
   194    C    5  py     Val( 2p)     0.89085      -0.00083
   195    C    5  py     Ryd( 4p)     0.00332       1.86290
   196    C    5  py     Ryd( 5p)     0.00005       3.07365
   197    C    5  py     Ryd( 3p)     0.00002       0.62750
   198    C    5  pz     Val( 2p)     1.07294      -0.11112
   199    C    5  pz     Ryd( 4p)     0.00420       1.03814
   200    C    5  pz     Ryd( 5p)     0.00009       1.68970
   201    C    5  pz     Ryd( 3p)     0.00008       0.48022
   202    C    5  dxy    Ryd( 3d)     0.00046       3.27311
   203    C    5  dxy    Ryd( 4d)     0.00032       3.31437
   204    C    5  dxy    Ryd( 5d)     0.00003       4.16182
   205    C    5  dxz    Ryd( 3d)     0.00057       2.17521
   206    C    5  dxz    Ryd( 4d)     0.00008       2.27977
   207    C    5  dxz    Ryd( 5d)     0.00003       2.76651
   208    C    5  dyz    Ryd( 3d)     0.00062       2.05614
   209    C    5  dyz    Ryd( 4d)     0.00046       2.20747
   210    C    5  dyz    Ryd( 5d)     0.00009       2.63833
   211    C    5  dx2y2  Ryd( 4d)     0.00068       3.52764
   212    C    5  dx2y2  Ryd( 3d)     0.00040       3.43658
   213    C    5  dx2y2  Ryd( 5d)     0.00006       4.11699
   214    C    5  dz2    Ryd( 4d)     0.00054       2.78035
   215    C    5  dz2    Ryd( 3d)     0.00048       2.60599
   216    C    5  dz2    Ryd( 5d)     0.00005       5.12691
   217    C    5  f(0)   Ryd( 4f)     0.00025       1.52557
   218    C    5  f(0)   Ryd( 5f)     0.00019       3.68293
   219    C    5  f(C1)  Ryd( 4f)     0.00084       1.89205
   220    C    5  f(C1)  Ryd( 5f)     0.00020       3.77793
   221    C    5  f(S1)  Ryd( 4f)     0.00025       1.84428
   222    C    5  f(S1)  Ryd( 5f)     0.00008       4.04744
   223    C    5  f(C2)  Ryd( 4f)     0.00023       1.38691
   224    C    5  f(C2)  Ryd( 5f)     0.00001       3.75342
   225    C    5  f(S2)  Ryd( 4f)     0.00110       1.45122
   226    C    5  f(S2)  Ryd( 5f)     0.00002       3.83623
   227    C    5  f(C3)  Ryd( 4f)     0.00277       2.15631
   228    C    5  f(C3)  Ryd( 5f)     0.00009       4.78586
   229    C    5  f(S3)  Ryd( 4f)     0.00057       3.10942
   230    C    5  f(S3)  Ryd( 5f)     0.00012       4.49705
 
   231    C    6  S      Cor( 1S)     1.99947     -10.41475
   232    C    6  S      Val( 2S)     1.10685      -0.31206
   233    C    6  S      Ryd( 3S)     0.00041       1.27649
   234    C    6  S      Ryd( 5S)     0.00004       6.49641
   235    C    6  S      Ryd( 4S)     0.00001       1.53016
   236    C    6  px     Val( 2p)     1.10305      -0.11223
   237    C    6  px     Ryd( 4p)     0.00097       1.24226
   238    C    6  px     Ryd( 5p)     0.00005       2.00142
   239    C    6  px     Ryd( 3p)     0.00002       1.05078
   240    C    6  py     Val( 2p)     1.18782      -0.12538
   241    C    6  py     Ryd( 4p)     0.00126       1.29837
   242    C    6  py     Ryd( 5p)     0.00005       2.47763
   243    C    6  py     Ryd( 3p)     0.00001       1.12542
   244    C    6  pz     Val( 2p)     1.20498      -0.12809
   245    C    6  pz     Ryd( 4p)     0.00012       1.20914
   246    C    6  pz     Ryd( 5p)     0.00001       1.95909
   247    C    6  pz     Ryd( 3p)     0.00002       0.85269
   248    C    6  dxy    Ryd( 4d)     0.00142       1.95796
   249    C    6  dxy    Ryd( 5d)     0.00005       3.50862
   250    C    6  dxy    Ryd( 3d)     0.00002       1.08543
   251    C    6  dxz    Ryd( 4d)     0.00193       1.68695
   252    C    6  dxz    Ryd( 5d)     0.00001       3.53890
   253    C    6  dxz    Ryd( 3d)     0.00003       1.19667
   254    C    6  dyz    Ryd( 4d)     0.00085       1.58248
   255    C    6  dyz    Ryd( 5d)     0.00001       3.29169
   256    C    6  dyz    Ryd( 3d)     0.00001       1.14833
   257    C    6  dx2y2  Ryd( 4d)     0.00089       1.85866
   258    C    6  dx2y2  Ryd( 5d)     0.00003       3.57091
   259    C    6  dx2y2  Ryd( 3d)     0.00001       1.27652
   260    C    6  dz2    Ryd( 4d)     0.00161       1.86092
   261    C    6  dz2    Ryd( 5d)     0.00005       3.64323
   262    C    6  dz2    Ryd( 3d)     0.00001       1.35497
   263    C    6  f(0)   Ryd( 5f)     0.00000       3.77873
   264    C    6  f(0)   Ryd( 4f)     0.00002       2.16496
   265    C    6  f(C1)  Ryd( 5f)     0.00014       4.11203
   266    C    6  f(C1)  Ryd( 4f)     0.00003       3.82430
   267    C    6  f(S1)  Ryd( 5f)     0.00005       3.92373
   268    C    6  f(S1)  Ryd( 4f)     0.00003       3.29957
   269    C    6  f(C2)  Ryd( 5f)     0.00003       3.82460
   270    C    6  f(C2)  Ryd( 4f)     0.00001       2.45907
   271    C    6  f(S2)  Ryd( 5f)     0.00000       3.70370
   272    C    6  f(S2)  Ryd( 4f)     0.00001       2.51134
   273    C    6  f(C3)  Ryd( 5f)     0.00002       3.91466
   274    C    6  f(C3)  Ryd( 4f)     0.00004       2.84661
   275    C    6  f(S3)  Ryd( 5f)     0.00008       3.91797
   276    C    6  f(S3)  Ryd( 4f)     0.00003       3.30499
 
   277    C    7  S      Cor( 1S)     1.99894     -10.33398
   278    C    7  S      Val( 2S)     0.93253      -0.12209
   279    C    7  S      Ryd( 4S)     0.00083       2.09099
   280    C    7  S      Ryd( 5S)     0.00009       2.93311
   281    C    7  S      Ryd( 3S)     0.00001       1.79411
   282    C    7  px     Val( 2p)     1.01603      -0.03162
   283    C    7  px     Ryd( 4p)     0.00341       1.85161
   284    C    7  px     Ryd( 5p)     0.00011       2.97664
   285    C    7  px     Ryd( 3p)     0.00004       1.03136
   286    C    7  py     Val( 2p)     1.17251      -0.04717
   287    C    7  py     Ryd( 4p)     0.00347       2.06386
   288    C    7  py     Ryd( 5p)     0.00007       2.69503
   289    C    7  py     Ryd( 3p)     0.00007       0.90976
   290    C    7  pz     Val( 2p)     1.06771      -0.09608
   291    C    7  pz     Ryd( 4p)     0.00116       1.13694
   292    C    7  pz     Ryd( 5p)     0.00012       1.80150
   293    C    7  pz     Ryd( 3p)     0.00006       0.57278
   294    C    7  dxy    Ryd( 4d)     0.00183       3.70658
   295    C    7  dxy    Ryd( 5d)     0.00037       4.41192
   296    C    7  dxy    Ryd( 3d)     0.00004       2.79161
   297    C    7  dxz    Ryd( 3d)     0.00116       1.47568
   298    C    7  dxz    Ryd( 5d)     0.00005       3.19556
   299    C    7  dxz    Ryd( 4d)     0.00001       2.33234
   300    C    7  dyz    Ryd( 3d)     0.00039       1.40356
   301    C    7  dyz    Ryd( 5d)     0.00009       3.30900
   302    C    7  dyz    Ryd( 4d)     0.00001       1.78227
   303    C    7  dx2y2  Ryd( 3d)     0.00147       2.52281
   304    C    7  dx2y2  Ryd( 5d)     0.00011       4.03479
   305    C    7  dx2y2  Ryd( 4d)     0.00007       3.69370
   306    C    7  dz2    Ryd( 3d)     0.00138       1.72164
   307    C    7  dz2    Ryd( 4d)     0.00010       3.84221
   308    C    7  dz2    Ryd( 5d)     0.00007       4.60321
   309    C    7  f(0)   Ryd( 4f)     0.00019       1.48732
   310    C    7  f(0)   Ryd( 5f)     0.00016       3.53079
   311    C    7  f(C1)  Ryd( 4f)     0.00027       1.96642
   312    C    7  f(C1)  Ryd( 5f)     0.00022       3.70037
   313    C    7  f(S1)  Ryd( 4f)     0.00096       1.87184
   314    C    7  f(S1)  Ryd( 5f)     0.00009       3.72479
   315    C    7  f(C2)  Ryd( 4f)     0.00023       1.46348
   316    C    7  f(C2)  Ryd( 5f)     0.00002       3.57604
   317    C    7  f(S2)  Ryd( 4f)     0.00032       1.48246
   318    C    7  f(S2)  Ryd( 5f)     0.00003       3.59016
   319    C    7  f(C3)  Ryd( 4f)     0.00058       2.53041
   320    C    7  f(C3)  Ryd( 5f)     0.00015       4.35385
   321    C    7  f(S3)  Ryd( 4f)     0.00088       2.81339
   322    C    7  f(S3)  Ryd( 5f)     0.00020       4.32054
 
   323    C    8  S      Cor( 1S)     1.99876     -10.32385
   324    C    8  S      Val( 2S)     0.87662      -0.06098
   325    C    8  S      Ryd( 3S)     0.00100       2.05644
   326    C    8  S      Ryd( 5S)     0.00008       3.16281
   327    C    8  S      Ryd( 4S)     0.00002       2.18129
   328    C    8  px     Val( 2p)     1.11407      -0.08091
   329    C    8  px     Ryd( 5p)     0.00458       2.75433
   330    C    8  px     Ryd( 4p)     0.00011       2.71955
   331    C    8  px     Ryd( 3p)     0.00007       0.78668
   332    C    8  py     Val( 2p)     1.10841      -0.06479
   333    C    8  py     Ryd( 4p)     0.00545       2.01242
   334    C    8  py     Ryd( 5p)     0.00009       2.52706
   335    C    8  py     Ryd( 3p)     0.00003       0.90494
   336    C    8  pz     Val( 2p)     1.16387      -0.10774
   337    C    8  pz     Ryd( 4p)     0.00172       1.06786
   338    C    8  pz     Ryd( 5p)     0.00025       2.04767
   339    C    8  pz     Ryd( 3p)     0.00004       0.59985
   340    C    8  dxy    Ryd( 3d)     0.00065       2.78859
   341    C    8  dxy    Ryd( 4d)     0.00065       4.03190
   342    C    8  dxy    Ryd( 5d)     0.00009       5.37467
   343    C    8  dxz    Ryd( 3d)     0.00018       1.49787
   344    C    8  dxz    Ryd( 5d)     0.00018       3.19417
   345    C    8  dxz    Ryd( 4d)     0.00004       2.52163
   346    C    8  dyz    Ryd( 3d)     0.00122       1.25399
   347    C    8  dyz    Ryd( 5d)     0.00009       3.10968
   348    C    8  dyz    Ryd( 4d)     0.00004       2.75158
   349    C    8  dx2y2  Ryd( 3d)     0.00177       2.55856
   350    C    8  dx2y2  Ryd( 4d)     0.00018       3.83978
   351    C    8  dx2y2  Ryd( 5d)     0.00002       5.06496
   352    C    8  dz2    Ryd( 3d)     0.00140       1.44933
   353    C    8  dz2    Ryd( 4d)     0.00020       4.05333
   354    C    8  dz2    Ryd( 5d)     0.00006       4.18941
   355    C    8  f(0)   Ryd( 4f)     0.00070       1.64297
   356    C    8  f(0)   Ryd( 5f)     0.00025       3.53266
   357    C    8  f(C1)  Ryd( 4f)     0.00111       2.16372
   358    C    8  f(C1)  Ryd( 5f)     0.00031       3.75772
   359    C    8  f(S1)  Ryd( 4f)     0.00072       1.88608
   360    C    8  f(S1)  Ryd( 5f)     0.00023       3.73537
   361    C    8  f(C2)  Ryd( 4f)     0.00097       1.63693
   362    C    8  f(C2)  Ryd( 5f)     0.00006       3.47704
   363    C    8  f(S2)  Ryd( 4f)     0.00085       1.53943
   364    C    8  f(S2)  Ryd( 5f)     0.00007       3.59832
   365    C    8  f(C3)  Ryd( 4f)     0.00127       3.23839
   366    C    8  f(C3)  Ryd( 5f)     0.00016       4.49164
   367    C    8  f(S3)  Ryd( 4f)     0.00163       2.76947
   368    C    8  f(S3)  Ryd( 5f)     0.00021       4.54134
 
   369    C    9  S      Cor( 1S)     1.99902     -10.50736
   370    C    9  S      Val( 2S)     0.77431      -0.07105
   371    C    9  S      Ryd( 3S)     0.00379       2.08399
   372    C    9  S      Ryd( 4S)     0.00018       2.17747
   373    C    9  S      Ryd( 5S)     0.00005       2.48565
   374    C    9  px     Val( 2p)     0.90343      -0.01877
   375    C    9  px     Ryd( 5p)     0.00515       1.65849
   376    C    9  px     Ryd( 3p)     0.00027       1.04763
   377    C    9  px     Ryd( 4p)     0.00002       1.57507
   378    C    9  py     Val( 2p)     0.73769       0.00952
   379    C    9  py     Ryd( 4p)     0.01327       1.63912
   380    C    9  py     Ryd( 3p)     0.00007       0.99081
   381    C    9  py     Ryd( 5p)     0.00005       2.42079
   382    C    9  pz     Val( 2p)     0.75695      -0.09432
   383    C    9  pz     Ryd( 4p)     0.00053       1.18385
   384    C    9  pz     Ryd( 3p)     0.00012       0.63465
   385    C    9  pz     Ryd( 5p)     0.00004       1.23306
   386    C    9  dxy    Ryd( 5d)     0.00100       4.24160
   387    C    9  dxy    Ryd( 3d)     0.00005       2.48657
   388    C    9  dxy    Ryd( 4d)     0.00005       4.04587
   389    C    9  dxz    Ryd( 5d)     0.00061       3.31759
   390    C    9  dxz    Ryd( 3d)     0.00008       1.53497
   391    C    9  dxz    Ryd( 4d)     0.00006       2.32493
   392    C    9  dyz    Ryd( 5d)     0.00130       3.43530
   393    C    9  dyz    Ryd( 3d)     0.00008       1.73639
   394    C    9  dyz    Ryd( 4d)     0.00003       2.48962
   395    C    9  dx2y2  Ryd( 5d)     0.00130       4.29733
   396    C    9  dx2y2  Ryd( 3d)     0.00007       2.84769
   397    C    9  dx2y2  Ryd( 4d)     0.00003       3.49132
   398    C    9  dz2    Ryd( 5d)     0.00019       4.49958
   399    C    9  dz2    Ryd( 3d)     0.00022       3.21065
   400    C    9  dz2    Ryd( 4d)     0.00004       3.59360
   401    C    9  f(0)   Ryd( 5f)     0.00011       3.51102
   402    C    9  f(0)   Ryd( 4f)     0.00002       2.54394
   403    C    9  f(C1)  Ryd( 5f)     0.00014       3.81060
   404    C    9  f(C1)  Ryd( 4f)     0.00002       3.45182
   405    C    9  f(S1)  Ryd( 5f)     0.00005       3.65047
   406    C    9  f(S1)  Ryd( 4f)     0.00004       3.47746
   407    C    9  f(C2)  Ryd( 5f)     0.00000       3.48165
   408    C    9  f(C2)  Ryd( 4f)     0.00014       2.73558
   409    C    9  f(S2)  Ryd( 5f)     0.00003       3.62367
   410    C    9  f(S2)  Ryd( 4f)     0.00000       2.96217
   411    C    9  f(C3)  Ryd( 4f)     0.00008       4.62854
   412    C    9  f(C3)  Ryd( 5f)     0.00002       7.93658
   413    C    9  f(S3)  Ryd( 4f)     0.00007       4.55431
   414    C    9  f(S3)  Ryd( 5f)     0.00003       4.96697
 
   415    O   10  S      Cor( 1S)     1.99979     -19.29690
   416    O   10  S      Val( 2S)     1.70711      -0.96688
   417    O   10  S      Ryd( 4S)     0.00103       3.00877
   418    O   10  S      Ryd( 3S)     0.00019       1.27253
   419    O   10  S      Ryd( 5S)     0.00001       8.74423
   420    O   10  px     Val( 2p)     1.81916      -0.30903
   421    O   10  px     Ryd( 4p)     0.00133       1.22513
   422    O   10  px     Ryd( 3p)     0.00007       0.68999
   423    O   10  px     Ryd( 5p)     0.00002       4.75572
   424    O   10  py     Val( 2p)     1.59164      -0.30376
   425    O   10  py     Ryd( 4p)     0.00128       1.38369
   426    O   10  py     Ryd( 3p)     0.00012       0.59645
   427    O   10  py     Ryd( 5p)     0.00006       5.62198
   428    O   10  pz     Val( 2p)     1.49074      -0.26284
   429    O   10  pz     Ryd( 4p)     0.00102       0.89176
   430    O   10  pz     Ryd( 3p)     0.00004       0.57198
   431    O   10  pz     Ryd( 5p)     0.00000       4.22331
   432    O   10  dxy    Ryd( 3d)     0.00688       2.01464
   433    O   10  dxy    Ryd( 4d)     0.00010       2.75920
   434    O   10  dxy    Ryd( 5d)     0.00003       6.68849
   435    O   10  dxz    Ryd( 3d)     0.00102       1.44915
   436    O   10  dxz    Ryd( 4d)     0.00003       1.62641
   437    O   10  dxz    Ryd( 5d)     0.00001       6.57138
   438    O   10  dyz    Ryd( 3d)     0.00588       1.58473
   439    O   10  dyz    Ryd( 4d)     0.00005       1.66932
   440    O   10  dyz    Ryd( 5d)     0.00004       6.53219
   441    O   10  dx2y2  Ryd( 3d)     0.00638       1.95544
   442    O   10  dx2y2  Ryd( 4d)     0.00008       2.37556
   443    O   10  dx2y2  Ryd( 5d)     0.00004       6.66890
   444    O   10  dz2    Ryd( 3d)     0.00277       1.67327
   445    O   10  dz2    Ryd( 4d)     0.00010       2.43828
   446    O   10  dz2    Ryd( 5d)     0.00000       6.66397
   447    O   10  f(0)   Ryd( 4f)     0.00014       3.12951
   448    O   10  f(0)   Ryd( 5f)     0.00000       5.56652
   449    O   10  f(C1)  Ryd( 4f)     0.00006       3.22881
   450    O   10  f(C1)  Ryd( 5f)     0.00001       5.62997
   451    O   10  f(S1)  Ryd( 4f)     0.00012       3.63097
   452    O   10  f(S1)  Ryd( 5f)     0.00001       5.85332
   453    O   10  f(C2)  Ryd( 4f)     0.00021       3.15501
   454    O   10  f(C2)  Ryd( 5f)     0.00002       5.73728
   455    O   10  f(S2)  Ryd( 4f)     0.00019       3.13389
   456    O   10  f(S2)  Ryd( 5f)     0.00001       5.69824
   457    O   10  f(C3)  Ryd( 4f)     0.00045       3.89161
   458    O   10  f(C3)  Ryd( 5f)     0.00001       6.11476
   459    O   10  f(S3)  Ryd( 4f)     0.00036       3.68491
   460    O   10  f(S3)  Ryd( 5f)     0.00002       6.01660
 
   461    O   11  S      Cor( 1S)     1.99978     -19.43837
   462    O   11  S      Val( 2S)     1.67207      -1.01263
   463    O   11  S      Ryd( 3S)     0.00046       1.61865
   464    O   11  S      Ryd( 4S)     0.00008       2.00190
   465    O   11  S      Ryd( 5S)     0.00002      10.02830
   466    O   11  px     Val( 2p)     1.44949      -0.33793
   467    O   11  px     Ryd( 4p)     0.00077       1.13640
   468    O   11  px     Ryd( 3p)     0.00016       0.72330
   469    O   11  px     Ryd( 5p)     0.00004       5.35546
   470    O   11  py     Val( 2p)     1.71673      -0.38769
   471    O   11  py     Ryd( 4p)     0.00091       1.03654
   472    O   11  py     Ryd( 3p)     0.00013       0.72160
   473    O   11  py     Ryd( 5p)     0.00009       5.01853
   474    O   11  pz     Val( 2p)     1.85406      -0.39551
   475    O   11  pz     Ryd( 4p)     0.00122       0.78831
   476    O   11  pz     Ryd( 3p)     0.00001       0.54840
   477    O   11  pz     Ryd( 5p)     0.00001       4.18468
   478    O   11  dxy    Ryd( 3d)     0.00687       2.03286
   479    O   11  dxy    Ryd( 4d)     0.00017       2.68917
   480    O   11  dxy    Ryd( 5d)     0.00003       6.89385
   481    O   11  dxz    Ryd( 3d)     0.00036       1.17185
   482    O   11  dxz    Ryd( 4d)     0.00011       1.99358
   483    O   11  dxz    Ryd( 5d)     0.00002       6.58448
[...]
 .00012842,-0.00085988,0.00083301,0.00074397,-0.02862122,0.30570336,-0.
 00738376,0.08957868,-0.07835628,0.00015163,-0.01217721,0.00536915,-0.0
 0069266,0.00018857,-0.00047166,-0.00034881,0.00010973,-0.00044566,0.00
 126421,-0.00051872,-0.00128928,0.00000009,0.00030263,-0.00002382,0.000
 80048,-0.00019087,0.00092088,-0.00069157,0.00072915,-0.00188064,0.0027
 1242,-0.00175613,0.00115683,-0.00045383,0.00031607,-0.00043417,-0.0013
 2277,0.00051854,-0.00026020,0.00747144,-0.09743079,0.08196802,-0.21855
 066,-0.11540425,-0.06584513,-0.02466718,-0.00950044,-0.00754198,-0.000
 91024,-0.00102939,0.00244396,-0.00010239,-0.00027136,0.00044570,-0.001
 17494,0.00096462,0.00127728,0.00015078,0.00036795,0.00016523,-0.001409
 12,0.00099948,-0.00122570,0.00252570,0.00035055,-0.00027529,-0.0021561
 9,0.00021040,-0.00032465,0.00048319,-0.00024684,0.00008572,0.00096845,
 0.00005921,-0.00057722,0.00229523,0.00095644,0.00092318,0.24122947,-0.
 11447960,-0.11646708,-0.04349777,0.01420804,0.00867285,0.00626738,0.00
 197634,-0.00086752,-0.00079152,0.00014078,0.00014506,-0.00034431,0.000
 31596,-0.00079804,0.00011249,-0.00005620,-0.00024318,-0.00012092,0.000
 09640,-0.00025768,0.00035732,-0.00044811,0.00059894,-0.00031928,-0.000
 57893,0.00078079,-0.00002856,0.00033265,-0.00032916,-0.00033807,0.0005
 6631,-0.00032783,-0.00051972,-0.02466248,-0.01667277,-0.00995645,0.120
 97284,0.12657543,-0.06559009,-0.04441908,-0.07002830,0.00972529,0.0074
 4683,0.00457358,-0.00068587,0.00049513,-0.00049092,-0.00030862,0.00018
 748,-0.00042716,0.00117299,-0.00071560,-0.00132073,-0.00024012,-0.0001
 8285,-0.00000594,0.00068217,-0.00049221,0.00093992,-0.00107045,-0.0000
 3163,-0.00183749,0.00312825,-0.00103577,0.00115010,-0.00055584,0.00016
 336,-0.00042250,-0.00130733,0.00071782,-0.00034883,0.00971337,0.006397
 41,0.00293066,0.07105953,0.04871606,0.07299103,-0.04807464,0.00041965,
 -0.00611714,0.00111762,-0.00096437,0.03213681,0.00225490,-0.00090960,-
 0.00119735,-0.00159442,0.00114862,-0.00015203,-0.00053406,0.00018113,0
 .00089789,0.00014309,-0.00009178,-0.00016300,-0.00025995,0.00036642,0.
 00109348,-0.00380755,0.00218423,-0.00096327,-0.00143920,0.00054889,-0.
 00079943,0.00041315,-0.00023951,0.00022351,0.00087958,-0.00014445,-0.0
 0073384,-0.00144287,-0.00078106,-0.00233167,0.00124267,0.00162830,-0.0
 2572888,0.05294629,0.00056056,-0.04726151,-0.00583931,-0.00199343,-0.0
 0247249,-0.01591550,-0.00090829,0.00093523,0.00056824,0.00107993,0.000
 19340,0.00002420,0.00017765,-0.00031471,-0.00045599,-0.00009131,0.0000
 1499,0.00008483,0.00034933,0.00026001,-0.00055178,0.00222310,-0.000373
 39,0.00049188,0.00056215,-0.00054043,0.00042047,-0.00024161,0.00002402
 ,-0.00012191,-0.00012344,0.00069559,0.00033934,0.00032851,0.00360322,0
 .03034779,0.00139306,-0.00060757,-0.01737230,-0.00387888,0.04673918,-0
 .00190868,-0.00790030,-0.32106895,-0.00020324,-0.00016341,-0.01166821,
 -0.00097526,0.00046913,-0.00013686,-0.00205574,0.00097694,-0.00091392,
 0.00044094,-0.00022190,-0.00046702,-0.00014765,0.00007555,0.00012893,0
 .00009075,-0.00006958,-0.00048299,0.00113124,-0.00054108,0.00160131,-0
 .00063702,0.00033461,0.00055703,0.00022909,-0.00012067,-0.00043660,0.0
 0007041,-0.00007075,-0.00062790,-0.00048779,-0.00075395,-0.00943398,-0
 .00005622,0.00034963,-0.00795292,0.00548829,0.00712730,0.35026643,-0.0
 0002057,0.00022258,0.00032319,0.00032254,-0.00002654,0.00135668,0.0023
 0657,-0.00197588,-0.00016727,-0.25202353,0.09819589,-0.08394851,-0.000
 42367,0.00055981,0.00036774,-0.00094238,0.00097443,0.00225028,-0.00000
 664,-0.00006587,-0.00000669,0.00012477,0.00010390,-0.00005055,-0.00001
 346,0.00004269,0.00021645,0.00001831,-0.00002885,-0.00011082,-0.000013
 90,0.00000101,-0.00006748,-0.00000349,-0.00003192,-0.00017376,0.000008
 20,-0.00000061,-0.00005408,0.00001253,-0.00016988,-0.00041645,0.270496
 28,0.00022722,0.00028621,-0.00018677,0.00003936,0.00014680,-0.00077293
 ,-0.00292911,-0.00025396,-0.00041684,0.09853297,-0.09542009,0.04052444
 ,0.00051335,0.00045017,-0.00017336,0.00093448,0.00045607,-0.00114263,-
 0.00007308,-0.00010452,0.00000436,0.00006544,0.00030328,-0.00002286,0.
 00005464,0.00003146,-0.00010246,-0.00002823,-0.00001912,0.00004153,-0.
 00000169,-0.00000594,0.00003265,-0.00000881,-0.00001124,-0.00006024,-0
 .00001776,-0.00001678,0.00018272,-0.00015656,-0.00022065,0.00022731,-0
 .10836587,0.09795403,0.00078135,-0.00041311,-0.00054229,0.00401185,-0.
 00204707,-0.00348769,-0.03543970,0.01692302,-0.02014488,-0.07157821,0.
 03443957,-0.07810458,-0.00168227,0.00082849,0.00095838,0.00049394,-0.0
 0027490,-0.00051268,-0.00029614,0.00014516,-0.00016760,-0.00131749,0.0
 0059219,-0.00147133,0.00067444,-0.00032995,0.00019370,-0.00009148,0.00
 003312,-0.00050599,-0.00016934,0.00008293,-0.00001366,-0.00006090,0.00
 004670,0.00015056,-0.00006926,0.00002802,0.00014192,0.00005770,-0.0000
 0043,0.00059710,0.08547245,-0.04076976,0.09441880,0.00034727,0.0000541
 8,-0.00037202,0.00049761,-0.00050637,-0.00025978,0.00031225,0.00166023
 ,-0.00015790,-0.05042011,0.01365131,0.00475425,-0.00045370,0.00048178,
 0.00108405,0.00003042,0.00019836,0.00032643,-0.00041394,-0.00010290,-0
 .00024867,0.00028751,0.00001946,-0.00013523,0.00017449,0.00003146,-0.0
 0017445,-0.00006556,-0.00000354,0.00009755,-0.00004024,0.00001933,0.00
 009215,-0.00004766,0.00004813,-0.00000203,0.00002047,-0.00004598,0.000
 28651,-0.00118212,-0.00025125,-0.00032747,0.00042584,0.02653802,0.0090
 0653,0.04838177,0.00021351,-0.00003604,-0.00051612,0.00156059,0.000427
 20,0.00071377,0.00069221,0.00697897,-0.00363556,0.01370818,-0.29458615
 ,-0.07628234,-0.00109732,0.00001359,0.00102399,0.00002881,-0.00009180,
 -0.00009881,-0.00045519,0.00007454,-0.00023433,-0.00011146,-0.00036933
 ,-0.00073434,0.00037467,-0.00028415,0.00032381,-0.00008106,0.00007807,
 -0.00016347,-0.00021827,0.00011607,-0.00001101,0.00002737,-0.00005955,
 0.00024959,-0.00003709,-0.00000902,0.00021078,0.00007107,0.00009181,0.
 00062145,-0.00039440,-0.01073188,-0.00254816,-0.01626066,0.31367355,-0
 .00022062,0.00021627,0.00000630,0.00252770,-0.00176262,0.00318562,0.00
 579953,-0.03327891,-0.02502495,0.00359942,-0.07044499,-0.06864629,-0.0
 0524861,-0.00066934,-0.00000719,-0.00026650,0.00002315,0.00004400,-0.0
 0022961,0.00057611,-0.00234963,0.00140559,-0.00030920,-0.00199500,0.00
 099701,0.00000319,0.00059369,-0.00025111,-0.00003527,-0.00038426,-0.00
 042870,0.00017855,-0.00002646,-0.00015729,0.00004836,-0.00006973,-0.00
 008083,0.00005813,0.00025893,-0.00090724,-0.00002545,-0.00007775,0.001
 15060,0.01061470,0.00399602,-0.00628043,0.08479420,0.08620984,-0.00001
 802,-0.00005200,0.00019631,-0.00000144,0.00107983,-0.00069897,0.004012
 38,0.00345450,0.00199206,-0.21426752,-0.11068469,0.07134170,0.00007569
 ,-0.00054775,-0.00012782,-0.00015507,-0.00009628,0.00028739,0.00014726
 ,-0.00001331,-0.00002247,-0.00004037,-0.00039160,0.00047220,-0.0003021
 7,-0.00003262,-0.00034179,0.00006604,0.00003272,0.00017766,0.00014638,
 -0.00005973,0.00006434,0.00003912,-0.00002058,0.00000861,-0.00010312,-
 0.00001954,-0.00019532,-0.00032554,0.00074232,-0.00073134,-0.01919756,
 -0.01531446,0.00868693,0.00217779,0.00199916,-0.00188331,0.22755312,-0
 .00022464,0.00037627,0.00059926,-0.00081281,0.00093607,-0.00012043,0.0
 0532280,0.00464452,0.00092682,-0.11092097,-0.12421646,0.04754138,0.000
 78976,-0.00044028,-0.00148528,0.00004522,0.00009083,-0.00020339,0.0003
 2578,-0.00049501,0.00025092,-0.00020420,-0.00002393,0.00047819,-0.0003
 1760,0.00016270,-0.00003516,0.00009215,-0.00004252,0.00000612,0.000150
 44,-0.00007085,-0.00006776,-0.00004094,-0.00004827,-0.00034387,0.00000
 363,-0.00002159,-0.00014951,0.00039957,-0.00077237,-0.00010038,0.01096
 203,0.00834408,-0.00601723,-0.02526033,-0.01538238,0.00977810,0.119783
 49,0.12710553,-0.00029523,0.00002275,-0.00001022,0.00303622,-0.0008437
 0,0.00317876,0.02912791,0.01431818,-0.02639550,0.06597914,0.04486983,-
 0.07522933,-0.00273888,0.00459376,-0.00010615,-0.00018393,0.00019645,0
 .00004257,-0.00065059,-0.00025803,-0.00233694,0.00107504,-0.00099217,-
 0.00199716,0.00064230,-0.00076565,0.00061996,-0.00014046,0.00020360,-0
 .00039198,-0.00041423,0.00023142,-0.00002543,-0.00008786,0.00004231,0.
 00027294,-0.00013876,0.00009323,-0.00006227,-0.00054576,0.00074753,-0.
 00007941,-0.00769666,-0.00724984,0.00455647,-0.00776374,-0.00365667,0.
 00427843,-0.07930818,-0.05103912,0.09365828,-0.00016696,0.00008445,-0.
 00033686,-0.00030956,0.00034003,0.00133402,-0.00377782,0.00222389,-0.0
 0321766,0.00014190,0.00006489,-0.00105707,-0.01746932,0.00816790,0.022
 64309,-0.14471083,0.05182948,0.12113943,0.00171310,-0.00088512,0.00042
 198,-0.00040947,0.00005061,-0.00021463,0.00012422,-0.00007348,0.000410
 62,0.00008310,-0.00006267,-0.00027229,0.00001019,-0.00000157,-0.000008
 71,-0.00007874,0.00002793,0.00000400,-0.00005428,0.00004533,-0.0000007
 7,0.00004767,-0.00002479,-0.00002033,0.00003183,-0.00020619,-0.0000590
 1,-0.00003554,0.00001867,0.00006849,0.00005099,-0.00003075,0.00010897,
 0.15833806,0.00008948,-0.00001936,0.00015916,0.00028942,0.00015489,-0.
 00064808,0.00222640,-0.00009799,0.00152086,0.00008285,0.00030417,0.000
 48405,0.00733075,-0.00586640,-0.01072679,0.05193372,-0.07234053,-0.063
 29094,-0.00091437,0.00031880,-0.00018717,0.00005698,-0.00031936,0.0001
 1663,-0.00008609,-0.00001182,-0.00020028,-0.00005400,-0.00000008,0.000
 13491,0.00000039,0.00000742,0.00000493,0.00002709,0.00000299,0.0000026
 7,0.00004480,-0.00002010,-0.00000420,-0.00002401,0.00001045,0.00001056
 ,-0.00019225,-0.00029001,0.00004389,-0.00009776,0.00003432,-0.00008027
 ,0.00008560,-0.00004951,0.00000096,-0.05890836,0.07562716,-0.00008912,
 0.00003793,-0.00019384,-0.00055642,0.00027781,0.00051716,-0.00325236,0
 .00153449,-0.00111312,-0.00035432,0.00014367,-0.00089089,-0.00886346,0
 .00467546,0.01087059,0.12509305,-0.06522426,-0.19835275,-0.00063746,0.
 00033145,0.00059805,0.00004228,-0.00001016,0.00012402,-0.00005704,0.00
 002830,-0.00003214,0.00004850,-0.00002196,0.00003627,0.00006288,-0.000
 03003,0.00003206,-0.00003235,0.00001475,0.00001412,-0.00003143,0.00001
 675,0.00001391,0.00000432,-0.00000102,0.00002742,0.00039707,-0.0001792
 1,0.00025563,0.00012021,-0.00005055,0.00012429,0.00011245,-0.00005700,
 0.00012295,-0.13175375,0.06888249,0.21330177,0.00019696,0.00026968,-0.
 00007513,-0.00149915,0.00068707,-0.00252051,0.00277403,-0.00088387,0.0
 0030872,-0.00029609,0.00010160,-0.00061717,-0.01532912,-0.01601107,-0.
 01758781,-0.11092173,-0.08963957,-0.07050662,-0.00070305,-0.00000467,0
 .00190884,-0.00122071,0.00143007,0.00037098,0.00028190,0.00030222,0.00
 075819,-0.00002857,-0.00002465,-0.00029367,-0.00034679,0.00009507,-0.0
 0016338,-0.00011946,0.00007675,0.00011150,0.00001185,-0.00001284,0.000
 02841,-0.00009091,0.00004282,0.00010065,-0.00087197,-0.00041866,0.0009
 2187,-0.00007221,0.00004111,0.00016895,0.00029391,-0.00012245,0.000247
 12,0.01100754,0.01390857,0.00984120,0.12130674,-0.00010820,-0.00009440
 ,-0.00005061,0.00006920,-0.00041529,0.00077583,-0.00081689,0.00076969,
 -0.00056602,0.00000486,0.00030901,-0.00056559,0.00757220,0.01308834,0.
 00955186,-0.08821018,-0.16771874,-0.09710237,0.00094431,-0.00044739,0.
 00017394,0.00023139,-0.00084949,0.00028664,-0.00003996,-0.00019976,-0.
 00022917,-0.00001990,0.00003091,0.00009393,0.00009331,0.00000986,0.000
 05527,0.00003052,-0.00000787,-0.00002900,-0.00002620,0.00002109,0.0000
 4994,-0.00000769,-0.00000386,0.00000610,0.00019803,-0.00011704,-0.0000
 2089,0.00012821,-0.00009485,0.00000721,0.00007214,-0.00006915,0.000035
 02,-0.00444646,-0.00705134,-0.00388413,0.09578666,0.18027242,-0.000044
 90,0.00004392,-0.00004715,-0.00046153,-0.00001435,-0.00031117,0.001157
 37,0.00002296,-0.00002924,0.00003495,0.00005893,0.00013458,-0.00753551
 ,-0.00641584,-0.01029755,-0.06950885,-0.09785728,-0.12255004,-0.001824
 77,0.00032718,0.00093910,0.00015173,0.00101425,-0.00021327,0.00013019,
 0.00013638,0.00037384,-0.00004622,0.00003361,-0.00019616,-0.00019054,0
 .00004873,-0.00013175,-0.00004724,0.00002845,0.00001907,-0.00003395,0.
 00001439,0.00005896,-0.00003133,-0.00000097,0.00003741,0.00073523,0.00
 003404,-0.00018447,-0.00003097,-0.00003964,0.00003058,-0.00005387,0.00
 004239,0.00007718,-0.01272742,-0.01557897,-0.01227145,0.08046851,0.105
 76394,0.13338276,-0.00006466,-0.00031249,0.00000662,-0.00124404,0.0002
 2569,-0.00215285,0.00237634,-0.00113935,0.00063598,0.00002426,0.000258
 12,0.00005629,0.00606354,0.02391292,-0.01972697,-0.05864538,-0.0447351
 0,0.03387229,-0.00100389,0.00078315,0.00104261,-0.00180790,-0.00022994
 ,0.00004780,-0.00013147,-0.00034662,0.00067241,0.00002325,0.00001481,-
 0.00025968,-0.00022259,0.00019090,-0.00015069,0.00003570,-0.00000841,-
 0.00002178,-0.00010214,0.00004946,0.00009280,-0.00005146,0.00002452,0.
 00005883,-0.00027261,0.00066051,0.00055899,0.00009528,-0.00007936,0.00
 012823,-0.00016487,0.00006050,0.00009805,-0.00453689,-0.01596195,0.009
 64379,-0.00429923,-0.01158004,0.01006581,0.06372663,0.00006808,0.00017
 322,0.00007879,0.00094597,-0.00064351,0.00150882,-0.00117999,0.0011567
 6,0.00007879,0.00036687,0.00001127,0.00083301,0.00112770,-0.00794532,0
 .00789788,-0.04610966,-0.20846915,0.11994162,-0.00032890,-0.00016466,-
 0.00156055,0.00094325,-0.00032916,-0.00048433,-0.00004115,0.00019966,-
 0.00045001,0.00002217,-0.00001983,0.00016620,0.00019233,-0.00011179,0.
 00009029,0.00000302,-0.00000503,-0.00005030,0.00008741,-0.00002814,-0.
 00007015,0.00006841,-0.00004481,-0.00008092,0.00004011,-0.00074757,-0.
 00069526,-0.00028582,0.00012497,-0.00021188,-0.00003863,0.,-0.00013576
 ,0.00164969,0.00935719,-0.00634732,-0.00534841,-0.01767448,0.01292506,
 0.04786895,0.22516665,-0.00006567,0.00000302,-0.00004795,-0.00029251,0
 .00038506,-0.00034291,0.00069432,-0.00095594,-0.00002455,-0.00003491,-
 0.00006496,0.00010173,0.00003133,0.00928682,-0.01065786,0.03514543,0.1
 1958645,-0.13405601,-0.00132314,0.00127010,0.00096132,-0.00071685,-0.0
 0073192,-0.00014531,-0.00001476,-0.00017183,0.00038852,-0.00006055,0.0
 0000793,-0.00019765,-0.00016255,0.00011560,-0.00013454,-0.00003098,0.0
 0002132,0.00006140,-0.00005325,0.00002119,0.00002004,-0.00002002,0.000
 02902,0.00003804,0.00042698,-0.00058899,-0.00014959,-0.00005542,0.0000
 1637,0.00008440,0.00001863,0.00004727,0.00003210,0.00424035,0.01902220
 ,-0.01313764,-0.00346268,-0.01441004,0.01099529,-0.03460219,-0.1334137
 4,0.14605585,0.00061422,0.00033543,0.00120828,-0.00407815,0.00315275,-
 0.00119439,0.00068634,0.00183945,-0.00296112,0.00107879,0.00060663,-0.
 00026546,0.00801081,-0.00369413,-0.00796903,-0.00016660,-0.00207279,0.
 00041211,-0.13979692,0.05795539,0.13048203,-0.00575216,0.00331499,0.02
 006704,-0.00035134,-0.00063406,0.00322385,0.00110100,-0.00075551,-0.00
 159938,0.00041472,-0.00022962,-0.00053918,-0.00002617,0.00004388,0.000
 02945,0.00006782,-0.00005360,-0.00005525,-0.00038509,0.00021870,0.0001
 5756,0.00002576,-0.00003777,0.00007532,-0.00000257,-0.00001405,0.00009
 033,0.00002620,-0.00000470,-0.00038417,-0.00001904,0.00016596,0.000267
 55,-0.00006807,0.00010786,-0.00019784,0.00018388,-0.00003146,0.0003247
 0,0.13854531,0.00030195,0.00106435,-0.00060770,0.00313922,0.00091506,0
 .00051276,0.00187298,0.00372667,0.00119802,0.00063792,0.00202331,0.000
 07482,-0.00303776,0.00248055,0.00359643,-0.00206131,-0.00342197,-0.000
 06199,0.05792569,-0.05870801,-0.06973659,0.00269998,-0.00166303,-0.009
 62365,-0.00071388,-0.00151585,-0.00151811,-0.00071226,0.00001220,0.000
 77663,-0.00020149,0.00008034,0.00026299,-0.00012506,0.00006439,0.00009
 416,0.00011968,-0.00003695,-0.00008363,0.00020792,-0.00004921,-0.00007
 521,-0.00004027,-0.00003696,-0.00003586,-0.00001570,0.00003311,0.00054
 830,0.00000582,-0.00002305,-0.00041745,0.00013924,0.00023409,-0.000139
 69,-0.00023697,0.00022719,-0.00056377,0.00030731,0.00000201,0.00050350
 ,-0.06029693,0.05456742,0.00001317,-0.00002736,0.00045581,-0.00169090,
 0.00075779,-0.00011786,-0.00174452,0.00060261,-0.00465972,0.00082838,-
 0.00045832,0.00032594,0.01637984,-0.00831503,-0.01036183,0.00079738,-0
 .00024927,0.00076522,0.12942073,-0.06921500,-0.24770210,-0.00272989,0.
 00152630,0.00699160,0.00021258,-0.00004677,0.00031502,0.00002579,-0.00
 001819,-0.00056717,0.00052006,-0.00025488,-0.00005216,0.00003014,0.000
 00715,0.00000602,0.00000568,-0.00002478,0.00001143,-0.00013654,0.00006
 802,0.00008862,-0.00001297,0.00000793,0.00000043,0.00004705,0.00000324
 ,-0.00024215,0.00001992,-0.00004873,-0.00021602,-0.00071303,0.00033908
 ,-0.00004161,-0.00003160,0.00006043,0.00017086,-0.00008085,-0.00000437
 ,0.00014358,-0.14112521,0.07527552,0.25471840,0.00001381,0.00010615,0.
 00044484,-0.00007413,-0.00028942,-0.00042044,0.00057113,-0.00017143,0.
 00041464,0.00004074,-0.00004139,-0.00017914,-0.00062827,0.00021674,0.0
 0044627,-0.00004217,-0.00008454,-0.00011290,-0.00006702,0.00045445,-0.
 00138075,-0.00393223,0.00393686,0.00441526,-0.02686490,0.01368699,-0.0
 5058348,0.00630168,-0.00576639,0.00377464,-0.10016325,0.03850430,-0.13
 173181,0.00001565,-0.00016191,-0.00005439,0.00022644,0.00002548,-0.000
 09670,0.00013030,-0.00001975,0.00019942,0.00001714,-0.00000779,0.00002
 242,-0.00001705,0.00001354,0.00001840,-0.00001318,0.00000404,0.0000337
 1,0.00001985,-0.00000321,-0.00000557,-0.00000585,0.00001685,-0.0000088
 8,0.00001826,-0.00001993,0.00001374,-0.00010873,0.00008392,-0.00003523
 ,0.12456177,0.00009444,0.00014116,-0.00023673,-0.00026738,-0.00050987,
 0.00021761,-0.00017162,0.00027647,-0.00020549,-0.00003627,-0.00001420,
 0.00008518,0.00020195,-0.00031444,-0.00020201,-0.00008204,-0.00016784,
 0.00006108,0.00049251,0.00071893,0.00065107,0.00386213,0.00193829,-0.0
 0220204,0.01484315,-0.00264903,0.02482293,-0.00575439,-0.00295240,-0.0
 0184016,0.03737609,-0.03093668,0.05308073,-0.00013820,0.00013626,0.000
 07600,0.00000324,-0.00009075,-0.00001061,-0.00002628,0.00009311,-0.000
 10045,-0.00000814,0.00000367,-0.00001046,-0.00000015,-0.00000103,-0.00
 002833,0.00001561,-0.00000462,0.00000333,-0.00000270,0.00001502,0.0000
 0224,-0.00003846,0.00001515,-0.00002342,0.00003643,-0.00000829,0.00002
 156,0.00008360,0.00002434,0.00001464,-0.05048354,0.03428677,0.00022052
 ,-0.00012783,-0.00030186,0.00031589,-0.00014109,-0.00016949,0.00036048
 ,-0.00017872,0.00011980,0.00001497,-0.00000948,-0.00011497,-0.00006848
 ,0.00004758,0.00031908,-0.00000611,0.00000934,0.00001416,0.00003329,-0
 .00003939,0.00013779,0.00163929,-0.00084851,0.00202382,-0.00753447,0.0
 0379917,0.00834458,0.00426141,-0.00207928,-0.00562924,-0.17380385,0.07
 362727,-0.43437953,-0.00002010,0.00017071,-0.00020424,-0.00015263,-0.0
 0009321,-0.00019341,-0.00007448,0.00003605,0.00000421,0.00000858,-0.00
 000378,0.00001574,-0.00000662,0.00001379,0.00001129,-0.00001514,-0.000
 00260,0.00001077,0.00001057,-0.00000567,-0.00000481,0.00002361,-0.0000
 0230,0.00001262,0.00001451,-0.00001589,0.00001176,-0.00004718,0.000020
 53,-0.00003230,0.17482594,-0.07417668,0.43000424\\-0.00001726,0.000006
 41,-0.00000681,0.00000866,-0.00000805,-0.00015078,0.00009224,-0.000044
 91,0.00001472,-0.00001156,0.00000498,-0.00004626,-0.00008879,0.0000461
 0,0.00001178,0.00001822,-0.00000938,0.00001276,-0.00005740,0.00003237,
 -0.00000745,0.00003454,-0.00000682,0.00009756,-0.00000557,-0.00004374,
 0.00002387,0.00001192,0.00001236,0.00001229,0.00002189,0.00000488,0.00
 001230,0.00000051,-0.00000893,0.00001493,0.00001019,0.00000793,0.00001
 125,-0.00000684,0.00000220,-0.00001603,-0.00001038,0.00000405,0.000004
 95,0.00000599,-0.00001949,0.00000495,0.00001939,0.00000774,0.00000416,
 -0.00001407,0.00000749,0.00001297,-0.00000371,-0.00001078,-0.00000540,
 0.00000644,0.00000888,-0.00000602,-0.00000751,0.00000356,0.00000973,-0
 .00000689,0.00000314,-0.00000948\\\@
 The archive entry for this job was punched.


  THE LARGE PRINT GIVETH,
  AND THE SMALL PRINT TAKETH AWAY.

                     -- TOM WAITS
 Job cpu time:       0 days 23 hours 34 minutes 13.8 seconds.
 Elapsed time:       0 days  1 hours 10 minutes 43.5 seconds.
 File lengths (MBytes):  RWF=    752 Int=      0 D2E=      0 Chk=     46 Scr=      1
 Normal termination of Gaussian 16 at Tue Mar  4 19:53:20 2025.
