 Entering Gaussian System, Link 0=g16
 Initial command:
 /usr/local/gaussian16c01/g16/l1.exe "/scr/dhuang/Gau-61480.inp" -scrdir="/scr/dhuang/"
 Entering Link 1 = /usr/local/gaussian16c01/g16/l1.exe PID=     61482.
  
 Copyright (c) 1988-2019, Gaussian, Inc.  All Rights Reserved.
  
 This is part of the Gaussian(R) 16 program.  It is based on
 the Gaussian(R) 09 system (copyright 2009, Gaussian, Inc.),
 the Gaussian(R) 03 system (copyright 2003, Gaussian, Inc.),
 the Gaussian(R) 98 system (copyright 1998, Gaussian, Inc.),
 the Gaussian(R) 94 system (copyright 1995, Gaussian, Inc.),
 the Gaussian 92(TM) system (copyright 1992, Gaussian, Inc.),
 the Gaussian 90(TM) system (copyright 1990, Gaussian, Inc.),
 the Gaussian 88(TM) system (copyright 1988, Gaussian, Inc.),
 the Gaussian 86(TM) system (copyright 1986, Carnegie Mellon
 University), and the Gaussian 82(TM) system (copyright 1983,
 Carnegie Mellon University). Gaussian is a federally registered
 trademark of Gaussian, Inc.
  
 This software contains proprietary and confidential information,
 including trade secrets, belonging to Gaussian, Inc.
  
 This software is provided under written license and may be
 used, copied, transmitted, or stored only in accord with that
 written license.
  
 The following legend is applicable only to US Government
 contracts under FAR:
  
                    RESTRICTED RIGHTS LEGEND
  
 Use, reproduction and disclosure by the US Government is
 subject to restrictions as set forth in subparagraphs (a)
 and (c) of the Commercial Computer Software - Restricted
 Rights clause in FAR 52.227-19.
  
 Gaussian, Inc.
 340 Quinnipiac St., Bldg. 40, Wallingford CT 06492
  
  
 ---------------------------------------------------------------
 Warning -- This program may not be used in any manner that
 competes with the business of Gaussian, Inc. or will provide
 assistance to any competitor of Gaussian, Inc.  The licensee
 of this program is prohibited from giving any competitor of
 Gaussian, Inc. access to this program.  By using this program,
 the user acknowledges that Gaussian, Inc. is engaged in the
 business of creating and licensing software in the field of
 computational chemistry and represents and warrants to the
 licensee that it is not a competitor of Gaussian, Inc. and that
 it will not use this program in any manner prohibited above.
 ---------------------------------------------------------------
  

 Cite this work as:
 Gaussian 16, Revision C.01,
 M. J. Frisch, G. W. Trucks, H. B. Schlegel, G. E. Scuseria, 
 M. A. Robb, J. R. Cheeseman, G. Scalmani, V. Barone, 
 G. A. Petersson, H. Nakatsuji, X. Li, M. Caricato, A. V. Marenich, 
 J. Bloino, B. G. Janesko, R. Gomperts, B. Mennucci, H. P. Hratchian, 
 J. V. Ortiz, A. F. Izmaylov, J. L. Sonnenberg, D. Williams-Young, 
 F. Ding, F. Lipparini, F. Egidi, J. Goings, B. Peng, A. Petrone, 
 T. Henderson, D. Ranasinghe, V. G. Zakrzewski, J. Gao, N. Rega, 
 G. Zheng, W. Liang, M. Hada, M. Ehara, K. Toyota, R. Fukuda, 
 J. Hasegawa, M. Ishida, T. Nakajima, Y. Honda, O. Kitao, H. Nakai, 
 T. Vreven, K. Throssell, J. A. Montgomery, Jr., J. E. Peralta, 
 F. Ogliaro, M. J. Bearpark, J. J. Heyd, E. N. Brothers, K. N. Kudin, 
 V. N. Staroverov, T. A. Keith, R. Kobayashi, J. Normand, 
 K. Raghavachari, A. P. Rendell, J. C. Burant, S. S. Iyengar, 
 J. Tomasi, M. Cossi, J. M. Millam, M. Klene, C. Adamo, R. Cammi, 
 J. W. Ochterski, R. L. Martin, K. Morokuma, O. Farkas, 
 J. B. Foresman, and D. J. Fox, Gaussian, Inc., Wallingford CT, 2019.
 
 ******************************************
 Gaussian 16:  ES64L-G16RevC.01  3-Jul-2019
                 4-Mar-2025 
 ******************************************
 %nprocshared=20
 Will use up to   20 processors via shared memory.
 %mem=10000MW
 %chk=11.chk
 ------------------------------------
 # opt freq m062x/aug-cc-pvtz pop=nbo
 ------------------------------------
 1/18=20,19=15,26=3,38=1/1,3;
 2/9=110,12=2,17=6,18=5,40=1/2;
 3/5=16,6=1,7=10,11=2,25=1,30=1,71=1,74=-55/1,2,3;
 4//1;
 5/5=2,38=5/2;
 6/7=2,8=2,9=2,10=2,28=1,40=1/1,7;
 7//1,2,3,16;
 1/18=20,19=15,26=3/3(2);
 2/9=110/2;
 99//99;
 2/9=110/2;
 3/5=16,6=1,7=10,11=2,25=1,30=1,71=1,74=-55/1,2,3;
 4/5=5,16=3,69=1/1;
 5/5=2,38=5/2;
 7//1,2,3,16;
 1/18=20,19=15,26=3/3(-5);
 2/9=110/2;
 6/7=2,8=2,9=2,10=2,19=2,28=1,40=1/1,7;
 99/9=1/99;
 --
 11
 --
 Symbolic Z-matrix:
 Charge =  0 Multiplicity = 1
 C                    -3.08386  -0.73104   2.89739 
 C                    -1.86205  -1.47194   2.41449 
 N                    -0.97959  -2.05537   3.12088 
 C                    -1.11508  -2.16709   4.58762 
 C                    -0.0023   -2.57924   2.5007 
 C                     1.19575  -3.29884   3.06433 
 C                    -0.25434  -2.31788   1.20274 
 C                     0.60875  -2.75644   0.04674 
 C                    -1.41528  -1.62722   1.14882 
 C                    -2.0232   -1.1715    0.0155 
 O                    -1.51942  -1.30868  -1.08292 
 O                    -3.2174   -0.5293    0.0555 
 H                    -3.13801   0.28813   2.45395 
 H                    -4.00843  -1.30604   2.66382 
 H                    -3.0744   -0.55642   3.99456 
 H                    -0.45133  -2.94228   5.02789 
 H                    -0.87147  -1.1939    5.07198 
 H                    -2.14647  -2.47505   4.87259 
 H                     2.04064  -3.3906    2.35095 
 H                     1.60775  -2.74433   3.93729 
 H                     0.90741  -4.32337   3.39169 
 H                     0.01536  -3.33877  -0.69339 
 H                     1.07675  -1.87622  -0.4494 
 H                     1.43369  -3.43738   0.34066 
 H                    -3.49265  -0.28066  -0.83653 
 

 GradGradGradGradGradGradGradGradGradGradGradGradGradGradGradGradGradGrad
 Berny optimization.
 Initialization pass.
                           ----------------------------
                           !    Initial Parameters    !
                           ! (Angstroms and Degrees)  !
 --------------------------                            --------------------------
 ! Name  Definition              Value          Derivative Info.                !
 --------------------------------------------------------------------------------
 ! R1    R(1,2)                  1.5083         estimate D2E/DX2                !
 ! R2    R(1,13)                 1.1128         estimate D2E/DX2                !
 ! R3    R(1,14)                 1.1136         estimate D2E/DX2                !
 ! R4    R(1,15)                 1.111          estimate D2E/DX2                !
 ! R5    R(2,3)                  1.272          estimate D2E/DX2                !
 ! R6    R(2,9)                  1.3512         estimate D2E/DX2                !
 ! R7    R(3,4)                  1.4772         estimate D2E/DX2                !
 ! R8    R(3,5)                  1.2705         estimate D2E/DX2                !
 ! R9    R(4,16)                 1.1115         estimate D2E/DX2                !
 ! R10   R(4,17)                 1.114          estimate D2E/DX2                !
 ! R11   R(4,18)                 1.1135         estimate D2E/DX2                !
 ! R12   R(5,6)                  1.5069         estimate D2E/DX2                !
 ! R13   R(5,7)                  1.3478         estimate D2E/DX2                !
 ! R14   R(6,19)                 1.1096         estimate D2E/DX2                !
 ! R15   R(6,20)                 1.1132         estimate D2E/DX2                !
 ! R16   R(6,21)                 1.1135         estimate D2E/DX2                !
 ! R17   R(7,8)                  1.5078         estimate D2E/DX2                !
 ! R18   R(7,9)                  1.3519         estimate D2E/DX2                !
 ! R19   R(8,22)                 1.1131         estimate D2E/DX2                !
 ! R20   R(8,23)                 1.1135         estimate D2E/DX2                !
 ! R21   R(8,24)                 1.1093         estimate D2E/DX2                !
 ! R22   R(9,10)                 1.3644         estimate D2E/DX2                !
 ! R23   R(10,11)                1.2162         estimate D2E/DX2                !
 ! R24   R(10,12)                1.3565         estimate D2E/DX2                !
 ! R25   R(12,25)                0.9661         estimate D2E/DX2                !
 ! A1    A(2,1,13)             111.2065         estimate D2E/DX2                !
 ! A2    A(2,1,14)             110.5962         estimate D2E/DX2                !
 ! A3    A(2,1,15)             112.735          estimate D2E/DX2                !
 ! A4    A(13,1,14)            110.4229         estimate D2E/DX2                !
 ! A5    A(13,1,15)            104.4772         estimate D2E/DX2                !
 ! A6    A(14,1,15)            107.1796         estimate D2E/DX2                !
 ! A7    A(1,2,3)              127.5511         estimate D2E/DX2                !
 ! A8    A(1,2,9)              128.6237         estimate D2E/DX2                !
 ! A9    A(3,2,9)              103.7742         estimate D2E/DX2                !
 ! A10   A(2,3,4)              121.4962         estimate D2E/DX2                !
 ! A11   A(2,3,5)              116.8507         estimate D2E/DX2                !
 ! A12   A(4,3,5)              121.6044         estimate D2E/DX2                !
 ! A13   A(3,4,16)             113.0344         estimate D2E/DX2                !
 ! A14   A(3,4,17)             110.2169         estimate D2E/DX2                !
 ! A15   A(3,4,18)             111.0997         estimate D2E/DX2                !
 ! A16   A(16,4,17)            107.8465         estimate D2E/DX2                !
 ! A17   A(16,4,18)            105.004          estimate D2E/DX2                !
 ! A18   A(17,4,18)            109.445          estimate D2E/DX2                !
 ! A19   A(3,5,6)              128.7461         estimate D2E/DX2                !
 ! A20   A(3,5,7)              104.2583         estimate D2E/DX2                !
 ! A21   A(6,5,7)              126.9756         estimate D2E/DX2                !
 ! A22   A(5,6,19)             113.8528         estimate D2E/DX2                !
 ! A23   A(5,6,20)             110.4679         estimate D2E/DX2                !
 ! A24   A(5,6,21)             110.0874         estimate D2E/DX2                !
 ! A25   A(19,6,20)            105.2804         estimate D2E/DX2                !
 ! A26   A(19,6,21)            108.0645         estimate D2E/DX2                !
 ! A27   A(20,6,21)            108.8806         estimate D2E/DX2                !
 ! A28   A(5,7,8)              125.0905         estimate D2E/DX2                !
 ! A29   A(5,7,9)              107.3414         estimate D2E/DX2                !
 ! A30   A(8,7,9)              127.5569         estimate D2E/DX2                !
 ! A31   A(7,8,22)             110.9028         estimate D2E/DX2                !
 ! A32   A(7,8,23)             110.6245         estimate D2E/DX2                !
 ! A33   A(7,8,24)             113.645          estimate D2E/DX2                !
 ! A34   A(22,8,23)            109.958          estimate D2E/DX2                !
 ! A35   A(22,8,24)            104.565          estimate D2E/DX2                !
 ! A36   A(23,8,24)            106.9017         estimate D2E/DX2                !
 ! A37   A(2,9,7)              107.7754         estimate D2E/DX2                !
 ! A38   A(2,9,10)             126.3247         estimate D2E/DX2                !
 ! A39   A(7,9,10)             125.8998         estimate D2E/DX2                !
 ! A40   A(9,10,11)            121.8671         estimate D2E/DX2                !
 ! A41   A(9,10,12)            121.7266         estimate D2E/DX2                !
 ! A42   A(11,10,12)           116.4035         estimate D2E/DX2                !
 ! A43   A(10,12,25)           110.2088         estimate D2E/DX2                !
 ! D1    D(13,1,2,3)           127.9611         estimate D2E/DX2                !
 ! D2    D(13,1,2,9)           -49.0118         estimate D2E/DX2                !
 ! D3    D(14,1,2,3)          -108.969          estimate D2E/DX2                !
 ! D4    D(14,1,2,9)            74.0581         estimate D2E/DX2                !
 ! D5    D(15,1,2,3)            11.0037         estimate D2E/DX2                !
 ! D6    D(15,1,2,9)          -165.9692         estimate D2E/DX2                !
 ! D7    D(1,2,3,4)              4.9862         estimate D2E/DX2                !
 ! D8    D(1,2,3,5)           -177.5126         estimate D2E/DX2                !
 ! D9    D(9,2,3,4)           -177.4483         estimate D2E/DX2                !
 ! D10   D(9,2,3,5)              0.0529         estimate D2E/DX2                !
 ! D11   D(1,2,9,7)            177.4783         estimate D2E/DX2                !
 ! D12   D(1,2,9,10)            -2.5605         estimate D2E/DX2                !
 ! D13   D(3,2,9,7)             -0.0511         estimate D2E/DX2                !
 ! D14   D(3,2,9,10)           179.9101         estimate D2E/DX2                !
 ! D15   D(2,3,4,16)           162.8327         estimate D2E/DX2                !
 ! D16   D(2,3,4,17)           -76.406          estimate D2E/DX2                !
 ! D17   D(2,3,4,18)            45.0841         estimate D2E/DX2                !
 ! D18   D(5,3,4,16)           -14.5496         estimate D2E/DX2                !
 ! D19   D(5,3,4,17)           106.2117         estimate D2E/DX2                !
 ! D20   D(5,3,4,18)          -132.2983         estimate D2E/DX2                !
 ! D21   D(2,3,5,6)            178.409          estimate D2E/DX2                !
 ! D22   D(2,3,5,7)             -0.0314         estimate D2E/DX2                !
 ! D23   D(4,3,5,6)             -4.0927         estimate D2E/DX2                !
 ! D24   D(4,3,5,7)            177.467          estimate D2E/DX2                !
 ! D25   D(3,5,6,19)          -162.5719         estimate D2E/DX2                !
 ! D26   D(3,5,6,20)           -44.3684         estimate D2E/DX2                !
 ! D27   D(3,5,6,21)            75.9145         estimate D2E/DX2                !
 ! D28   D(7,5,6,19)            15.5358         estimate D2E/DX2                !
 ! D29   D(7,5,6,20)           133.7393         estimate D2E/DX2                !
 ! D30   D(7,5,6,21)          -105.9778         estimate D2E/DX2                !
 ! D31   D(3,5,7,8)           -178.8602         estimate D2E/DX2                !
 ! D32   D(3,5,7,9)             -0.0048         estimate D2E/DX2                !
 ! D33   D(6,5,7,8)              2.6624         estimate D2E/DX2                !
 ! D34   D(6,5,7,9)           -178.4822         estimate D2E/DX2                !
 ! D35   D(5,7,8,22)           124.547          estimate D2E/DX2                !
 ! D36   D(5,7,8,23)          -113.1674         estimate D2E/DX2                !
 ! D37   D(5,7,8,24)             7.0903         estimate D2E/DX2                !
 ! D38   D(9,7,8,22)           -54.0748         estimate D2E/DX2                !
 ! D39   D(9,7,8,23)            68.2109         estimate D2E/DX2                !
 ! D40   D(9,7,8,24)          -171.5314         estimate D2E/DX2                !
 ! D41   D(5,7,9,2)              0.0354         estimate D2E/DX2                !
 ! D42   D(5,7,9,10)          -179.926          estimate D2E/DX2                !
 ! D43   D(8,7,9,2)            178.854          estimate D2E/DX2                !
 ! D44   D(8,7,9,10)            -1.1074         estimate D2E/DX2                !
 ! D45   D(2,9,10,11)          176.851          estimate D2E/DX2                !
 ! D46   D(2,9,10,12)           -2.5185         estimate D2E/DX2                !
 ! D47   D(7,9,10,11)           -3.1946         estimate D2E/DX2                !
 ! D48   D(7,9,10,12)          177.4358         estimate D2E/DX2                !
 ! D49   D(9,10,12,25)         180.0            estimate D2E/DX2                !
 ! D50   D(11,10,12,25)          0.5978         estimate D2E/DX2                !
 --------------------------------------------------------------------------------
 Trust Radius=3.00D-01 FncErr=1.00D-07 GrdErr=1.00D-06 EigMax=2.50D+02 EigMin=1.00D-04
 Number of steps in this run=    128 maximum allowed number of steps=    150.
 GradGradGradGradGradGradGradGradGradGradGradGradGradGradGradGradGradGrad

                          Input orientation:                          
 ---------------------------------------------------------------------
 Center     Atomic      Atomic             Coordinates (Angstroms)
 Number     Number       Type             X           Y           Z
 ---------------------------------------------------------------------
      1          6           0       -3.083865   -0.731040    2.897387
      2          6           0       -1.862046   -1.471945    2.414489
      3          7           0       -0.979594   -2.055373    3.120884
      4          6           0       -1.115082   -2.167089    4.587622
      5          6           0       -0.002304   -2.579241    2.500698
      6          6           0        1.195745   -3.298839    3.064334
      7          6           0       -0.254342   -2.317881    1.202740
      8          6           0        0.608753   -2.756444    0.046742
      9          6           0       -1.415283   -1.627221    1.148817
     10          6           0       -2.023200   -1.171500    0.015500
     11          8           0       -1.519423   -1.308677   -1.082916
     12          8           0       -3.217400   -0.529300    0.055500
     13          1           0       -3.138009    0.288131    2.453952
     14          1           0       -4.008430   -1.306042    2.663818
     15          1           0       -3.074397   -0.556423    3.994557
     16          1           0       -0.451332   -2.942281    5.027890
     17          1           0       -0.871467   -1.193896    5.071978
     18          1           0       -2.146468   -2.475052    4.872593
     19          1           0        2.040641   -3.390601    2.350946
     20          1           0        1.607754   -2.744331    3.937293
     21          1           0        0.907409   -4.323370    3.391690
     22          1           0        0.015362   -3.338773   -0.693387
     23          1           0        1.076751   -1.876222   -0.449398
     24          1           0        1.433690   -3.437378    0.340663
     25          1           0       -3.492651   -0.280657   -0.836534
 ---------------------------------------------------------------------
                    Distance matrix (angstroms):
                    1          2          3          4          5
     1  C    0.000000
     2  C    1.508301   0.000000
     3  N    2.496350   1.272047   0.000000
     4  C    2.965676   2.400768   1.477213   0.000000
     5  C    3.615139   2.166144   1.270498   2.400708   0.000000
     6  C    4.993648   3.620763   2.506293   2.990182   1.506926
     7  C    3.660067   2.183724   2.067408   3.495859   1.347786
     8  C    5.085652   3.655271   3.530538   4.892702   2.535092
     9  C    2.577751   1.351160   2.064507   3.493846   2.174957
    10  C    3.102303   2.423094   3.393192   4.766568   3.498852
    11  O    4.315548   3.517938   4.303592   5.749379   4.093687
    12  O    2.852166   2.879304   4.090630   5.257587   4.529691
    13  H    1.112778   2.174283   3.255083   3.830520   4.249313
    14  H    1.113554   2.167177   3.153451   3.579648   4.206744
    15  H    1.111019   2.191938   2.719992   2.604781   3.970033
    16  H    4.044608   3.313890   2.168487   1.111451   2.592320
    17  H    3.136525   2.849703   2.135557   1.114026   3.047312
    18  H    2.796736   2.670093   2.146209   1.113466   3.199091
    19  H    5.799346   4.349280   3.390790   4.056882   2.203259
    20  H    5.210185   3.997175   2.799206   2.858316   2.164104
    21  H    5.392535   4.093339   2.962757   3.189086   2.159497
    22  H    5.412867   4.082719   4.145566   5.526282   3.283196
    23  H    5.461056   4.123326   4.124023   5.500937   3.218954
    24  H    5.854007   4.361829   3.932367   5.113368   2.732074
    25  H    3.783135   3.827164   5.012607   6.215539   5.348189
                    6          7          8          9         10
     6  C    0.000000
     7  C    2.555496   0.000000
     8  C    3.121636   1.507847   0.000000
     9  C    3.644308   1.351925   2.566405   0.000000
    10  C    4.917577   2.419212   3.072490   1.364423   0.000000
    11  O    5.341588   2.800562   2.810923   2.256756   1.216194
    12  O    6.016583   3.646216   4.427154   2.376636   1.356516
    13  H    5.658653   4.083181   5.394657   2.887861   3.052764
    14  H    5.587047   4.153521   5.501920   3.020397   3.312526
    15  H    5.159484   4.341622   5.830174   3.463742   4.161277
    16  H    2.587576   3.880779   5.096091   4.207825   5.543508
    17  H    3.568583   4.076173   5.466773   3.984307   5.186035
    18  H    3.888293   4.131908   5.564105   3.888439   5.030487
    19  H    1.109591   2.781376   2.786004   4.061777   5.185896
    20  H    1.113234   3.335721   4.016782   4.261723   5.571183
    21  H    1.113536   3.187970   3.705824   4.206495   5.470047
    22  H    3.938954   2.170313   1.113108   2.893072   3.058648
    23  H    3.792666   2.167126   1.113539   2.970947   3.212859
    24  H    2.737553   2.201341   1.109316   3.470796   4.146085
    25  H    6.804943   4.335385   4.871469   3.173375   1.918033
                   11         12         13         14         15
    11  O    0.000000
    12  O    2.187818   0.000000
    13  H    4.204646   2.535166   0.000000
    14  H    4.498131   2.834145   1.828405   0.000000
    15  H    5.363260   3.941745   1.758062   1.790310   0.000000
    16  H    6.414938   6.180475   4.927368   4.573735   3.693313
    17  H    6.189971   5.577647   3.766654   3.956305   2.533794
    18  H    6.100960   5.304454   3.803704   3.116436   2.305024
    19  H    5.366551   6.411171   6.353117   6.405820   6.074342
    20  H    6.086282   6.576989   5.823950   5.935649   5.168438
    21  H    5.916079   6.522207   6.205699   5.813737   5.514355
    22  H    2.574604   4.347956   5.744904   5.620829   6.266171
    23  H    2.731954   4.528671   5.556804   5.989682   6.222752
    24  H    3.908813   5.492802   6.264650   6.289381   6.478710
    25  H    2.238562   0.966080   3.358063   3.683735   4.856997
                   16         17         18         19         20
    16  H    0.000000
    17  H    1.798695   0.000000
    18  H    1.765193   1.818445   0.000000
    19  H    3.684691   4.550813   4.972808   0.000000
    20  H    2.338465   3.136541   3.878335   1.766792   0.000000
    21  H    2.535889   3.972577   3.864650   1.799283   1.811499
    22  H    5.753956   6.215014   6.033213   3.656829   4.932775
    23  H    5.785517   5.894635   6.250707   3.326313   4.503181
    24  H    5.076271   5.721215   5.855083   2.100433   3.666928
    25  H    7.122171   6.528026   6.262723   7.102753   7.407647
                   21         22         23         24         25
    21  H    0.000000
    22  H    4.295699   0.000000
    23  H    4.557540   1.823495   0.000000
    24  H    3.220361   1.758020   1.785724   0.000000
    25  H    7.319968   4.656041   4.855424   5.968208   0.000000
 Stoichiometry    C9H13NO2
 Framework group  C1[X(C9H13NO2)]
 Deg. of freedom    69
 Full point group                 C1      NOp   1
 Largest Abelian subgroup         C1      NOp   1
 Largest concise Abelian subgroup C1      NOp   1
                         Standard orientation:                         
 ---------------------------------------------------------------------
 Center     Atomic      Atomic             Coordinates (Angstroms)
 Number     Number       Type             X           Y           Z
 ---------------------------------------------------------------------
      1          6           0        0.455700   -2.495474   -0.055269
      2          6           0       -0.057643   -1.078217   -0.002055
      3          7           0       -1.269684   -0.692135   -0.002556
      4          6           0       -2.387015   -1.656985    0.050287
      5          6           0       -1.472420    0.562083   -0.001190
      6          6           0       -2.782679    1.305706   -0.033966
      7          6           0       -0.235862    1.098221    0.001170
      8          6           0        0.068690    2.574747    0.028049
      9          6           0        0.647186    0.074537    0.001126
     10          6           0        2.006655    0.190646    0.004566
     11          8           0        2.558786    1.272940   -0.049452
     12          8           0        2.815384   -0.897225    0.055834
     13          1           0        1.204111   -2.622225   -0.868959
     14          1           0        0.893816   -2.790482    0.925051
     15          1           0       -0.341133   -3.232104   -0.293588
     16          1           0       -3.351352   -1.189907    0.345607
     17          1           0       -2.530138   -2.135203   -0.945643
     18          1           0       -2.201351   -2.443748    0.816016
     19          1           0       -2.686774    2.370960   -0.329311
     20          1           0       -3.468249    0.853474   -0.785477
     21          1           0       -3.269341    1.267338    0.966859
     22          1           0        0.732046    2.827878    0.885308
     23          1           0        0.543167    2.894825   -0.927142
     24          1           0       -0.828233    3.211480    0.171857
     25          1           0        3.742193   -0.624644    0.049950
 ---------------------------------------------------------------------
 Rotational constants (GHZ):           1.3830946           0.8787665           0.5454066
 Standard basis: Aug-CC-pVTZ (5D, 7F)
 There are   985 symmetry adapted cartesian basis functions of A   symmetry.
 There are   851 symmetry adapted basis functions of A   symmetry.
   851 basis functions,  1215 primitive gaussians,   985 cartesian basis functions
    45 alpha electrons       45 beta electrons
       nuclear repulsion energy       742.3494765524 Hartrees.
 NAtoms=   25 NActive=   25 NUniq=   25 SFac= 1.00D+00 NAtFMM=   60 NAOKFM=F Big=F
 Integral buffers will be    131072 words long.
 Raffenetti 2 integral format.
 Two-electron integral symmetry is turned on.
 One-electron integrals computed using PRISM.
 NBasis=   851 RedAO= T EigKep=  1.15D-06  NBF=   851
 NBsUse=   847 1.00D-06 EigRej=  9.63D-07 NBFU=   847
 ExpMin= 2.53D-02 ExpMax= 1.53D+04 ExpMxC= 5.22D+02 IAcc=3 IRadAn=         5 AccDes= 0.00D+00
 Harris functional with IExCor= 1009 and IRadAn=       5 diagonalized for initial guess.
 HarFok:  IExCor= 1009 AccDes= 0.00D+00 IRadAn=         5 IDoV= 1 UseB2=F ITyADJ=14
 ICtDFT=  3500011 ScaDFX=  1.000000  1.000000  1.000000  1.000000
 FoFCou: FMM=F IPFlag=           0 FMFlag=      100000 FMFlg1=           0
         NFxFlg=           0 DoJE=T BraDBF=F KetDBF=T FulRan=T
         wScrn=  0.000000 ICntrl=       500 IOpCl=  0 I1Cent=   200000004 NGrid=           0
         NMat0=    1 NMatS0=      1 NMatT0=    0 NMatD0=    1 NMtDS0=    0 NMtDT0=    0
 Petite list used in FoFCou.
 Requested convergence on RMS density matrix=1.00D-08 within 128 cycles.
 Requested convergence on MAX density matrix=1.00D-06.
 Requested convergence on             energy=1.00D-06.
 No special actions if energy rises.
 SCF Done:  E(RM062X) =  -555.942083275     A.U. after   14 cycles
            NFock= 14  Conv=0.29D-08     -V/T= 2.0039

 **********************************************************************

            Population analysis using the SCF Density.

 **********************************************************************

 Orbital symmetries:
       Occupied  (A) (A) (A) (A) (A) (A) (A) (A) (A) (A) (A) (A)
                 (A) (A) (A) (A) (A) (A) (A) (A) (A) (A) (A) (A)
                 (A) (A) (A) (A) (A) (A) (A) (A) (A) (A) (A) (A)
                 (A) (A) (A) (A) (A) (A) (A) (A) (A)
       Virtual   (A) (A) (A) (A) (A) (A) (A) (A) (A) (A) (A) (A)
                 (A) (A) (A) (A) (A) (A) (A) (A) (A) (A) (A) (A)
                 (A) (A) (A) (A) (A) (A) (A) (A) (A) (A) (A) (A)
                 (A) (A) (A) (A) (A) (A) (A) (A) (A) (A) (A) (A)
                 (A) (A) (A) (A) (A) (A) (A) (A) (A) (A) (A) (A)
                 (A) (A) (A) (A) (A) (A) (A) (A) (A) (A) (A) (A)
                 (A) (A) (A) (A) (A) (A) (A) (A) (A) (A) (A) (A)
                 (A) (A) (A) (A) (A) (A) (A) (A) (A) (A) (A) (A)
                 (A) (A) (A) (A) (A) (A) (A) (A) (A) (A) (A) (A)
                 (A) (A) (A) (A) (A) (A) (A) (A) (A) (A) (A) (A)
                 (A) (A) (A) (A) (A) (A) (A) (A) (A) (A) (A) (A)
                 (A) (A) (A) (A) (A) (A) (A) (A) (A) (A) (A) (A)
                 (A) (A) (A) (A) (A) (A) (A) (A) (A) (A) (A) (A)
                 (A) (A) (A) (A) (A) (A) (A) (A) (A) (A) (A) (A)
                 (A) (A) (A) (A) (A) (A) (A) (A) (A) (A) (A) (A)
                 (A) (A) (A) (A) (A) (A) (A) (A) (A) (A) (A) (A)
                 (A) (A) (A) (A) (A) (A) (A) (A) (A) (A) (A) (A)
                 (A) (A) (A) (A) (A) (A) (A) (A) (A) (A) (A) (A)
                 (A) (A) (A) (A) (A) (A) (A) (A) (A) (A) (A) (A)
                 (A) (A) (A) (A) (A) (A) (A) (A) (A) (A) (A) (A)
                 (A) (A) (A) (A) (A) (A) (A) (A) (A) (A) (A) (A)
                 (A) (A) (A) (A) (A) (A) (A) (A) (A) (A) (A) (A)
                 (A) (A) (A) (A) (A) (A) (A) (A) (A) (A) (A) (A)
                 (A) (A) (A) (A) (A) (A) (A) (A) (A) (A) (A) (A)
                 (A) (A) (A) (A) (A) (A) (A) (A) (A) (A) (A) (A)
                 (A) (A) (A) (A) (A) (A) (A) (A) (A) (A) (A) (A)
                 (A) (A) (A) (A) (A) (A) (A) (A) (A) (A) (A) (A)
                 (A) (A) (A) (A) (A) (A) (A) (A) (A) (A) (A) (A)
                 (A) (A) (A) (A) (A) (A) (A) (A) (A) (A) (A) (A)
                 (A) (A) (A) (A) (A) (A) (A) (A) (A) (A) (A) (A)
                 (A) (A) (A) (A) (A) (A) (A) (A) (A) (A) (A) (A)
                 (A) (A) (A) (A) (A) (A) (A) (A) (A) (A) (A) (A)
                 (A) (A) (A) (A) (A) (A) (A) (A) (A) (A) (A) (A)
                 (A) (A) (A) (A) (A) (A) (A) (A) (A) (A) (A) (A)
                 (A) (A) (A) (A) (A) (A) (A) (A) (A) (A) (A) (A)
                 (A) (A) (A) (A) (A) (A) (A) (A) (A) (A) (A) (A)
                 (A) (A) (A) (A) (A) (A) (A) (A) (A) (A) (A) (A)
                 (A) (A) (A) (A) (A) (A) (A) (A) (A) (A) (A) (A)
                 (A) (A) (A) (A) (A) (A) (A) (A) (A) (A) (A) (A)
                 (A) (A) (A) (A) (A) (A) (A) (A) (A) (A) (A) (A)
                 (A) (A) (A) (A) (A) (A) (A) (A) (A) (A) (A) (A)
                 (A) (A) (A) (A) (A) (A) (A) (A) (A) (A) (A) (A)
                 (A) (A) (A) (A) (A) (A) (A) (A) (A) (A) (A) (A)
                 (A) (A) (A) (A) (A) (A) (A) (A) (A) (A) (A) (A)
                 (A) (A) (A) (A) (A) (A) (A) (A) (A) (A) (A) (A)
                 (A) (A) (A) (A) (A) (A) (A) (A) (A) (A) (A) (A)
                 (A) (A) (A) (A) (A) (A) (A) (A) (A) (A) (A) (A)
                 (A) (A) (A) (A) (A) (A) (A) (A) (A) (A) (A) (A)
                 (A) (A) (A) (A) (A) (A) (A) (A) (A) (A) (A) (A)
                 (A) (A) (A) (A) (A) (A) (A) (A) (A) (A) (A) (A)
                 (A) (A) (A) (A) (A) (A) (A) (A) (A) (A) (A) (A)
                 (A) (A) (A) (A) (A) (A) (A) (A) (A) (A) (A) (A)
                 (A) (A) (A) (A) (A) (A) (A) (A) (A) (A) (A) (A)
                 (A) (A) (A) (A) (A) (A) (A) (A) (A) (A) (A) (A)
                 (A) (A) (A) (A) (A) (A) (A) (A) (A) (A) (A) (A)
                 (A) (A) (A) (A) (A) (A) (A) (A) (A) (A) (A) (A)
                 (A) (A) (A) (A) (A) (A) (A) (A) (A) (A) (A) (A)
                 (A) (A) (A) (A) (A) (A) (A) (A) (A) (A) (A) (A)
                 (A) (A) (A) (A) (A) (A) (A) (A) (A) (A) (A) (A)
                 (A) (A) (A) (A) (A) (A) (A) (A) (A) (A) (A) (A)
                 (A) (A) (A) (A) (A) (A) (A) (A) (A) (A) (A) (A)
                 (A) (A) (A) (A) (A) (A) (A) (A) (A) (A) (A) (A)
                 (A) (A) (A) (A) (A) (A) (A) (A) (A) (A) (A) (A)
                 (A) (A) (A) (A) (A) (A) (A) (A) (A) (A) (A) (A)
                 (A) (A) (A) (A) (A) (A) (A) (A) (A) (A) (A) (A)
                 (A) (A) (A) (A) (A) (A) (A) (A) (A) (A) (A) (A)
                 (A) (A) (A) (A) (A) (A) (A) (A) (A) (A)
 The electronic state is 1-A.
 Alpha  occ. eigenvalues --  -19.64744 -19.57689 -14.80761 -10.64569 -10.59783
 Alpha  occ. eigenvalues --  -10.56252 -10.55274 -10.54975 -10.54853 -10.51681
 Alpha  occ. eigenvalues --  -10.51398 -10.50500  -1.21371  -1.16684  -1.10592
 Alpha  occ. eigenvalues --   -0.93486  -0.90213  -0.83234  -0.81765  -0.79485
 Alpha  occ. eigenvalues --   -0.74356  -0.72166  -0.65070  -0.62732  -0.58236
 Alpha  occ. eigenvalues --   -0.57504  -0.54930  -0.53923  -0.52088  -0.49902
 Alpha  occ. eigenvalues --   -0.49349  -0.48955  -0.48336  -0.46842  -0.46126
 Alpha  occ. eigenvalues --   -0.46082  -0.44136  -0.43926  -0.43511  -0.41576
 Alpha  occ. eigenvalues --   -0.39916  -0.37600  -0.32779  -0.30072  -0.25798
 Alpha virt. eigenvalues --   -0.01604  -0.00105   0.00394   0.00545   0.01568
 Alpha virt. eigenvalues --    0.02143   0.02308   0.02369   0.02754   0.02946
 Alpha virt. eigenvalues --    0.03837   0.04428   0.04641   0.05370   0.05737
 Alpha virt. eigenvalues --    0.06213   0.06802   0.06947   0.07303   0.07537
 Alpha virt. eigenvalues --    0.08067   0.08720   0.08890   0.09192   0.09463
 Alpha virt. eigenvalues --    0.09734   0.09841   0.09922   0.10248   0.10457
 Alpha virt. eigenvalues --    0.10849   0.11350   0.11512   0.12036   0.12318
 Alpha virt. eigenvalues --    0.12490   0.12869   0.13151   0.13423   0.13838
 Alpha virt. eigenvalues --    0.14403   0.15032   0.15639   0.15844   0.16676
 Alpha virt. eigenvalues --    0.16822   0.17491   0.17546   0.17920   0.18089
 Alpha virt. eigenvalues --    0.18795   0.19049   0.19355   0.19598   0.19889
 Alpha virt. eigenvalues --    0.20348   0.20848   0.21435   0.21559   0.22523
 Alpha virt. eigenvalues --    0.22644   0.23397   0.23540   0.23917   0.24241
 Alpha virt. eigenvalues --    0.24507   0.24725   0.25884   0.26069   0.26326
 Alpha virt. eigenvalues --    0.26662   0.26874   0.27255   0.27393   0.27913
 Alpha virt. eigenvalues --    0.28835   0.29020   0.29563   0.30219   0.30444
 Alpha virt. eigenvalues --    0.31043   0.31153   0.31481   0.31600   0.32173
 Alpha virt. eigenvalues --    0.32408   0.32789   0.33026   0.33278   0.33754
 Alpha virt. eigenvalues --    0.33932   0.34124   0.34686   0.34812   0.34976
 Alpha virt. eigenvalues --    0.35539   0.35829   0.36130   0.36343   0.36658
 Alpha virt. eigenvalues --    0.36902   0.37348   0.37706   0.38289   0.38369
 Alpha virt. eigenvalues --    0.38633   0.38965   0.39222   0.39738   0.39992
 Alpha virt. eigenvalues --    0.40424   0.40599   0.41139   0.41474   0.41681
 Alpha virt. eigenvalues --    0.42307   0.42600   0.42794   0.43254   0.43600
 Alpha virt. eigenvalues --    0.43820   0.44609   0.44777   0.45025   0.45478
 Alpha virt. eigenvalues --    0.45782   0.46390   0.46404   0.46805   0.47494
 Alpha virt. eigenvalues --    0.47778   0.48061   0.48204   0.48934   0.49491
 Alpha virt. eigenvalues --    0.49860   0.50089   0.51135   0.51688   0.52121
 Alpha virt. eigenvalues --    0.52273   0.52776   0.53410   0.54045   0.54771
 Alpha virt. eigenvalues --    0.55330   0.55460   0.55863   0.56507   0.57083
 Alpha virt. eigenvalues --    0.57664   0.57931   0.58382   0.59098   0.59553
 Alpha virt. eigenvalues --    0.59943   0.60299   0.60415   0.61151   0.62105
 Alpha virt. eigenvalues --    0.62774   0.63061   0.63452   0.64749   0.65129
 Alpha virt. eigenvalues --    0.65855   0.66308   0.67238   0.67780   0.68948
 Alpha virt. eigenvalues --    0.69315   0.69570   0.70010   0.70592   0.70937
 Alpha virt. eigenvalues --    0.71549   0.71669   0.72203   0.73024   0.73580
 Alpha virt. eigenvalues --    0.73798   0.74177   0.74712   0.74997   0.75362
 Alpha virt. eigenvalues --    0.75798   0.76576   0.76717   0.77044   0.77400
 Alpha virt. eigenvalues --    0.77787   0.78567   0.79616   0.79905   0.80179
 Alpha virt. eigenvalues --    0.80679   0.81146   0.81984   0.82114   0.82329
 Alpha virt. eigenvalues --    0.82656   0.83324   0.83764   0.84257   0.84783
 Alpha virt. eigenvalues --    0.85212   0.85315   0.86168   0.86535   0.86843
 Alpha virt. eigenvalues --    0.87076   0.87620   0.87940   0.88218   0.88356
 Alpha virt. eigenvalues --    0.88533   0.89396   0.89795   0.90079   0.90393
 Alpha virt. eigenvalues --    0.90784   0.91462   0.92133   0.92469   0.92540
 Alpha virt. eigenvalues --    0.93339   0.93662   0.94194   0.94280   0.94871
 Alpha virt. eigenvalues --    0.95713   0.96308   0.96992   0.97097   0.97482
 Alpha virt. eigenvalues --    0.98924   0.99464   0.99689   1.00116   1.00587
 Alpha virt. eigenvalues --    1.00829   1.01125   1.01603   1.02573   1.03385
 Alpha virt. eigenvalues --    1.04006   1.04368   1.05102   1.05480   1.05688
 Alpha virt. eigenvalues --    1.06292   1.06677   1.07020   1.08155   1.08835
 Alpha virt. eigenvalues --    1.09021   1.09189   1.10363   1.10892   1.11739
 Alpha virt. eigenvalues --    1.12210   1.13040   1.13954   1.14270   1.14695
 Alpha virt. eigenvalues --    1.15469   1.15785   1.16529   1.17005   1.17295
 Alpha virt. eigenvalues --    1.17477   1.18021   1.18672   1.18817   1.19779
 Alpha virt. eigenvalues --    1.20533   1.21567   1.22397   1.22596   1.23201
 Alpha virt. eigenvalues --    1.23603   1.24176   1.24476   1.25729   1.26064
 Alpha virt. eigenvalues --    1.26228   1.26584   1.27987   1.28593   1.29216
 Alpha virt. eigenvalues --    1.29483   1.30251   1.31152   1.31476   1.31669
 Alpha virt. eigenvalues --    1.32560   1.33217   1.33475   1.34458   1.34965
 Alpha virt. eigenvalues --    1.36203   1.36513   1.37137   1.37909   1.38554
 Alpha virt. eigenvalues --    1.38965   1.39557   1.40311   1.40795   1.41505
 Alpha virt. eigenvalues --    1.41777   1.42433   1.42747   1.43182   1.43446
 Alpha virt. eigenvalues --    1.43799   1.44064   1.45447   1.45873   1.46566
 Alpha virt. eigenvalues --    1.47124   1.47421   1.47849   1.48486   1.48775
 Alpha virt. eigenvalues --    1.50037   1.50158   1.50372   1.50820   1.51639
 Alpha virt. eigenvalues --    1.52388   1.52704   1.53546   1.53967   1.54561
 Alpha virt. eigenvalues --    1.55248   1.55517   1.56067   1.56234   1.57189
 Alpha virt. eigenvalues --    1.57852   1.58370   1.58616   1.59279   1.59897
 Alpha virt. eigenvalues --    1.60276   1.60633   1.60988   1.63193   1.63562
 Alpha virt. eigenvalues --    1.64118   1.64342   1.64866   1.65180   1.66359
 Alpha virt. eigenvalues --    1.66970   1.67654   1.67920   1.69114   1.69651
 Alpha virt. eigenvalues --    1.69993   1.70221   1.71419   1.72310   1.72885
 Alpha virt. eigenvalues --    1.73599   1.73991   1.74638   1.75461   1.76304
 Alpha virt. eigenvalues --    1.76545   1.77131   1.77474   1.78385   1.78828
 Alpha virt. eigenvalues --    1.80238   1.80581   1.81455   1.81828   1.82570
 Alpha virt. eigenvalues --    1.82747   1.83149   1.84335   1.84811   1.87183
 Alpha virt. eigenvalues --    1.87971   1.88012   1.88342   1.89709   1.90168
 Alpha virt. eigenvalues --    1.90859   1.91605   1.92007   1.93334   1.94342
 Alpha virt. eigenvalues --    1.95354   1.96730   1.97327   1.98491   1.99018
 Alpha virt. eigenvalues --    1.99505   1.99703   2.00703   2.02098   2.02584
 Alpha virt. eigenvalues --    2.03629   2.03662   2.04873   2.05285   2.07021
 Alpha virt. eigenvalues --    2.07729   2.08268   2.08873   2.09519   2.10504
 Alpha virt. eigenvalues --    2.10795   2.11536   2.13020   2.13796   2.14074
 Alpha virt. eigenvalues --    2.14403   2.15015   2.15651   2.17387   2.17874
 Alpha virt. eigenvalues --    2.18763   2.19059   2.20717   2.20951   2.22181
 Alpha virt. eigenvalues --    2.23333   2.24313   2.24694   2.26039   2.27215
 Alpha virt. eigenvalues --    2.27766   2.29331   2.29818   2.31082   2.31593
 Alpha virt. eigenvalues --    2.32313   2.33460   2.33967   2.36671   2.39098
 Alpha virt. eigenvalues --    2.39839   2.42379   2.43390   2.44057   2.44419
 Alpha virt. eigenvalues --    2.45591   2.46755   2.48205   2.49929   2.50383
 Alpha virt. eigenvalues --    2.51148   2.52146   2.53281   2.54702   2.56531
 Alpha virt. eigenvalues --    2.58290   2.60335   2.62281   2.63167   2.64915
 Alpha virt. eigenvalues --    2.65165   2.68311   2.69106   2.70534   2.72042
 Alpha virt. eigenvalues --    2.72406   2.73534   2.74641   2.78166   2.81532
 Alpha virt. eigenvalues --    2.83334   2.85365   2.85680   2.88141   2.88874
 Alpha virt. eigenvalues --    2.89473   2.92001   2.94736   2.96114   3.00788
 Alpha virt. eigenvalues --    3.04367   3.05141   3.06111   3.06992   3.08014
 Alpha virt. eigenvalues --    3.09564   3.11398   3.12037   3.12888   3.13902
 Alpha virt. eigenvalues --    3.15989   3.17218   3.18997   3.19860   3.22435
 Alpha virt. eigenvalues --    3.23116   3.23805   3.24894   3.25759   3.27033
 Alpha virt. eigenvalues --    3.27516   3.28125   3.28454   3.30034   3.31472
 Alpha virt. eigenvalues --    3.32517   3.33132   3.33443   3.34687   3.34972
 Alpha virt. eigenvalues --    3.36088   3.37167   3.37672   3.38238   3.38960
 Alpha virt. eigenvalues --    3.39924   3.40359   3.41328   3.41748   3.42117
 Alpha virt. eigenvalues --    3.42652   3.43135   3.44477   3.44799   3.45622
 Alpha virt. eigenvalues --    3.46280   3.47877   3.48191   3.48851   3.49761
 Alpha virt. eigenvalues --    3.51133   3.51993   3.52953   3.53731   3.54362
 Alpha virt. eigenvalues --    3.54966   3.55241   3.56369   3.57180   3.57713
 Alpha virt. eigenvalues --    3.57856   3.58990   3.59956   3.60577   3.61221
 Alpha virt. eigenvalues --    3.62145   3.62490   3.62748   3.63530   3.64110
 Alpha virt. eigenvalues --    3.64868   3.66193   3.66806   3.67121   3.67866
 Alpha virt. eigenvalues --    3.68112   3.69452   3.70088   3.72113   3.72800
 Alpha virt. eigenvalues --    3.73406   3.74506   3.75514   3.75839   3.76310
 Alpha virt. eigenvalues --    3.77519   3.78205   3.79414   3.80706   3.80971
 Alpha virt. eigenvalues --    3.82045   3.82396   3.83522   3.84590   3.85653
 Alpha virt. eigenvalues --    3.86875   3.87246   3.87931   3.88824   3.89620
 Alpha virt. eigenvalues --    3.90771   3.91855   3.93814   3.94083   3.95481
 Alpha virt. eigenvalues --    3.96089   3.96500   3.97715   3.98297   3.98811
 Alpha virt. eigenvalues --    3.99705   4.00834   4.01779   4.03223   4.03548
 Alpha virt. eigenvalues --    4.04385   4.05374   4.06121   4.06602   4.08998
 Alpha virt. eigenvalues --    4.09508   4.10207   4.11360   4.12093   4.12445
 Alpha virt. eigenvalues --    4.13802   4.14199   4.16114   4.16687   4.17145
 Alpha virt. eigenvalues --    4.19397   4.20079   4.20176   4.21969   4.22528
 Alpha virt. eigenvalues --    4.24617   4.25247   4.25528   4.26894   4.27126
 Alpha virt. eigenvalues --    4.28675   4.29233   4.31373   4.31573   4.33025
 Alpha virt. eigenvalues --    4.34666   4.35536   4.36552   4.37664   4.39192
 Alpha virt. eigenvalues --    4.39471   4.41131   4.42678   4.44256   4.45138
 Alpha virt. eigenvalues --    4.45396   4.46857   4.47414   4.48816   4.49902
 Alpha virt. eigenvalues --    4.50499   4.51184   4.52497   4.53269   4.53785
 Alpha virt. eigenvalues --    4.53858   4.55574   4.55943   4.57169   4.58583
 Alpha virt. eigenvalues --    4.60211   4.60762   4.61129   4.63956   4.64450
 Alpha virt. eigenvalues --    4.65073   4.66542   4.68093   4.68608   4.70388
 Alpha virt. eigenvalues --    4.72472   4.73217   4.74460   4.75110   4.76678
 Alpha virt. eigenvalues --    4.77085   4.78514   4.80399   4.81108   4.82968
 Alpha virt. eigenvalues --    4.83435   4.84110   4.84988   4.85700   4.86690
 Alpha virt. eigenvalues --    4.87934   4.88223   4.90807   4.92063   4.92897
 Alpha virt. eigenvalues --    4.94536   4.96058   4.97202   4.98093   4.98389
 Alpha virt. eigenvalues --    5.00621   5.02333   5.04254   5.07150   5.07784
 Alpha virt. eigenvalues --    5.08887   5.09577   5.10944   5.14007   5.15481
 Alpha virt. eigenvalues --    5.16341   5.16813   5.17667   5.19104   5.20098
 Alpha virt. eigenvalues --    5.20776   5.22298   5.25733   5.26955   5.29217
 Alpha virt. eigenvalues --    5.29581   5.31636   5.33926   5.34188   5.37528
 Alpha virt. eigenvalues --    5.39184   5.41353   5.42186   5.44201   5.48508
 Alpha virt. eigenvalues --    5.52110   5.53032   5.54263   5.58191   5.61246
 Alpha virt. eigenvalues --    5.63394   5.64061   5.66394   5.66878   5.68864
 Alpha virt. eigenvalues --    5.69924   5.71687   5.72486   5.73109   5.75772
 Alpha virt. eigenvalues --    5.76090   5.78817   5.81161   5.81994   5.84260
 Alpha virt. eigenvalues --    5.87892   5.89945   5.90621   5.92965   5.99719
 Alpha virt. eigenvalues --    6.02239   6.10772   6.16990   6.20896   6.25973
 Alpha virt. eigenvalues --    6.28482   6.29611   6.32172   6.33631   6.34632
 Alpha virt. eigenvalues --    6.35938   6.39772   6.41655   6.42958   6.46108
 Alpha virt. eigenvalues --    6.48042   6.49583   6.53715   6.54734   6.55853
 Alpha virt. eigenvalues --    6.58961   6.60097   6.62887   6.63074   6.69907
 Alpha virt. eigenvalues --    6.74026   6.76169   6.77786   6.83905   6.85527
 Alpha virt. eigenvalues --    6.88997   6.91429   6.94159   6.99145   7.12803
 Alpha virt. eigenvalues --    7.14242   7.21397   7.23470   7.25423   7.36356
 Alpha virt. eigenvalues --    7.43136   7.61221   7.75074   7.91079   8.11278
 Alpha virt. eigenvalues --   15.78631  16.19658  16.73477  17.82845  18.11561
 Alpha virt. eigenvalues --   18.59106  19.48777  19.73259  20.28331  21.29083
 Alpha virt. eigenvalues --   21.63440  22.28905
          Condensed to atoms (all electrons):
               1          2          3          4          5          6
     1  C    6.958333  -0.870634  -0.255436  -0.086678   0.022613  -0.017677
     2  C   -0.870634  10.394337   0.039620  -0.248712  -1.033983   0.081066
     3  N   -0.255436   0.039620   7.957602   0.535717   0.007481  -0.294606
     4  C   -0.086678  -0.248712   0.535717   6.717624  -0.380092  -0.091059
     5  C    0.022613  -1.033983   0.007481  -0.380092   8.910205  -1.018497
     6  C   -0.017677   0.081066  -0.294606  -0.091059  -1.018497   6.921828
     7  C    0.273973  -1.115052  -0.325538  -0.064276  -0.125093  -0.117766
     8  C   -0.031731   0.001589   0.009446   0.016472  -0.098762  -0.028294
     9  C   -0.155295  -0.512745  -0.714569   0.004105  -0.504247   0.118879
    10  C   -0.124205  -0.365800   0.189635   0.007708  -0.125933  -0.002624
    11  O    0.002532   0.118540  -0.014113   0.006808   0.030847   0.002903
    12  O    0.005171   0.066634  -0.041794   0.001798  -0.014214  -0.001334
    13  H    0.523907  -0.259717   0.002455  -0.013344  -0.005854  -0.005403
    14  H    0.540080  -0.241483  -0.016934  -0.020313   0.009598  -0.001648
    15  H    0.438824   0.019415  -0.039035  -0.030933   0.018644   0.005779
    16  H    0.028705  -0.093446  -0.033384   0.298671   0.176370  -0.092237
    17  H   -0.031621   0.025741  -0.000109   0.397158  -0.076878   0.006202
    18  H   -0.064621   0.065918   0.021343   0.411610  -0.085539   0.026402
    19  H   -0.004144   0.033414   0.057044   0.014146  -0.225266   0.482659
    20  H    0.005288  -0.024161  -0.091394  -0.048443  -0.009800   0.502054
    21  H    0.000498  -0.026163  -0.062740  -0.023927  -0.078194   0.484734
    22  H   -0.002021   0.009747   0.005428   0.001918  -0.000921  -0.009644
    23  H   -0.001945   0.011817   0.003526   0.002160   0.009811  -0.024712
    24  H    0.001073  -0.001364  -0.005739  -0.000908  -0.006094   0.005436
    25  H   -0.014854  -0.014935   0.011327  -0.001187   0.002667   0.000454
               7          8          9         10         11         12
     1  C    0.273973  -0.031731  -0.155295  -0.124205   0.002532   0.005171
     2  C   -1.115052   0.001589  -0.512745  -0.365800   0.118540   0.066634
     3  N   -0.325538   0.009446  -0.714569   0.189635  -0.014113  -0.041794
     4  C   -0.064276   0.016472   0.004105   0.007708   0.006808   0.001798
     5  C   -0.125093  -0.098762  -0.504247  -0.125933   0.030847  -0.014214
     6  C   -0.117766  -0.028294   0.118879  -0.002624   0.002903  -0.001334
     7  C    8.408873  -0.440477  -1.043446   0.096594   0.137107   0.080316
     8  C   -0.440477   6.707389  -0.199484  -0.006822   0.020818   0.000001
     9  C   -1.043446  -0.199484   9.035609  -1.497677  -0.462911  -0.202268
    10  C    0.096594  -0.006822  -1.497677   8.115844  -0.005631   0.068682
    11  O    0.137107   0.020818  -0.462911  -0.005631   9.381194  -0.207634
    12  O    0.080316   0.000001  -0.202268   0.068682  -0.207634   8.591566
    13  H    0.066951   0.000317  -0.081078   0.023387   0.001365  -0.003810
    14  H    0.031251  -0.003231  -0.046716  -0.001070   0.002005  -0.005578
    15  H   -0.017709  -0.001946   0.012223  -0.025773  -0.000608  -0.002649
    16  H   -0.028092   0.000552   0.008723   0.005547  -0.000220  -0.000177
    17  H    0.007386   0.002829  -0.003565  -0.002099   0.000796   0.000555
    18  H    0.002456   0.000539  -0.026467  -0.005286   0.000754   0.000261
    19  H   -0.084784  -0.009425   0.026964   0.004268  -0.000184  -0.000050
    20  H    0.006522  -0.006040  -0.005035  -0.000867  -0.000078  -0.000148
    21  H   -0.010981  -0.006443   0.003882  -0.000089  -0.000088  -0.000104
    22  H   -0.029877   0.496873  -0.144320   0.029791   0.007902   0.000853
    23  H   -0.112952   0.521227  -0.083536  -0.000107   0.009552   0.002587
    24  H   -0.082056   0.391488   0.052796  -0.025449   0.001574  -0.000167
    25  H   -0.027130  -0.002680  -0.014584   0.079447  -0.108372   0.206882
              13         14         15         16         17         18
     1  C    0.523907   0.540080   0.438824   0.028705  -0.031621  -0.064621
     2  C   -0.259717  -0.241483   0.019415  -0.093446   0.025741   0.065918
     3  N    0.002455  -0.016934  -0.039035  -0.033384  -0.000109   0.021343
     4  C   -0.013344  -0.020313  -0.030933   0.298671   0.397158   0.411610
     5  C   -0.005854   0.009598   0.018644   0.176370  -0.076878  -0.085539
     6  C   -0.005403  -0.001648   0.005779  -0.092237   0.006202   0.026402
     7  C    0.066951   0.031251  -0.017709  -0.028092   0.007386   0.002456
     8  C    0.000317  -0.003231  -0.001946   0.000552   0.002829   0.000539
     9  C   -0.081078  -0.046716   0.012223   0.008723  -0.003565  -0.026467
    10  C    0.023387  -0.001070  -0.025773   0.005547  -0.002099  -0.005286
    11  O    0.001365   0.002005  -0.000608  -0.000220   0.000796   0.000754
    12  O   -0.003810  -0.005578  -0.002649  -0.000177   0.000555   0.000261
    13  H    0.556578   0.051925  -0.101914   0.003903  -0.004449  -0.012153
    14  H    0.051925   0.473102  -0.070044   0.004056  -0.008564  -0.011181
    15  H   -0.101914  -0.070044   0.655287   0.001860   0.002079  -0.008790
    16  H    0.003903   0.004056   0.001860   0.637342  -0.064077  -0.139031
    17  H   -0.004449  -0.008564   0.002079  -0.064077   0.343107   0.058486
    18  H   -0.012153  -0.011181  -0.008790  -0.139031   0.058486   0.505508
    19  H   -0.000305  -0.000276  -0.000280  -0.006708   0.003007   0.003341
    20  H    0.000034   0.000206   0.001155  -0.000634  -0.005694  -0.003458
    21  H   -0.000168   0.000220   0.000385  -0.001772  -0.003451  -0.001611
    22  H   -0.000100   0.000306  -0.000309   0.000250  -0.000067   0.000200
    23  H    0.000403  -0.000303  -0.000182   0.000132   0.000471  -0.000129
    24  H    0.000163  -0.000040   0.000047   0.000066   0.000240  -0.000158
    25  H   -0.002615  -0.000924  -0.000373   0.000000  -0.000123  -0.000068
              19         20         21         22         23         24
     1  C   -0.004144   0.005288   0.000498  -0.002021  -0.001945   0.001073
     2  C    0.033414  -0.024161  -0.026163   0.009747   0.011817  -0.001364
     3  N    0.057044  -0.091394  -0.062740   0.005428   0.003526  -0.005739
     4  C    0.014146  -0.048443  -0.023927   0.001918   0.002160  -0.000908
     5  C   -0.225266  -0.009800  -0.078194  -0.000921   0.009811  -0.006094
     6  C    0.482659   0.502054   0.484734  -0.009644  -0.024712   0.005436
     7  C   -0.084784   0.006522  -0.010981  -0.029877  -0.112952  -0.082056
     8  C   -0.009425  -0.006040  -0.006443   0.496873   0.521227   0.391488
     9  C    0.026964  -0.005035   0.003882  -0.144320  -0.083536   0.052796
    10  C    0.004268  -0.000867  -0.000089   0.029791  -0.000107  -0.025449
    11  O   -0.000184  -0.000078  -0.000088   0.007902   0.009552   0.001574
    12  O   -0.000050  -0.000148  -0.000104   0.000853   0.002587  -0.000167
    13  H   -0.000305   0.000034  -0.000168  -0.000100   0.000403   0.000163
    14  H   -0.000276   0.000206   0.000220   0.000306  -0.000303  -0.000040
    15  H   -0.000280   0.001155   0.000385  -0.000309  -0.000182   0.000047
    16  H   -0.006708  -0.000634  -0.001772   0.000250   0.000132   0.000066
    17  H    0.003007  -0.005694  -0.003451  -0.000067   0.000471   0.000240
    18  H    0.003341  -0.003458  -0.001611   0.000200  -0.000129  -0.000158
    19  H    0.641289  -0.075856  -0.073521  -0.002056  -0.007851  -0.006406
    20  H   -0.075856   0.537937   0.033701  -0.001143  -0.001518   0.003632
    21  H   -0.073521   0.033701   0.502145   0.000404  -0.002112  -0.002540
    22  H   -0.002056  -0.001143   0.000404   0.466841   0.026203  -0.034448
    23  H   -0.007851  -0.001518  -0.002112   0.026203   0.470103  -0.043008
    24  H   -0.006406   0.003632  -0.002540  -0.034448  -0.043008   0.551651
    25  H    0.000045   0.000027   0.000046  -0.000033   0.000016  -0.000260
              25
     1  C   -0.014854
     2  C   -0.014935
     3  N    0.011327
     4  C   -0.001187
     5  C    0.002667
     6  C    0.000454
     7  C   -0.027130
     8  C   -0.002680
     9  C   -0.014584
    10  C    0.079447
    11  O   -0.108372
    12  O    0.206882
    13  H   -0.002615
    14  H   -0.000924
    15  H   -0.000373
    16  H    0.000000
    17  H   -0.000123
    18  H   -0.000068
    19  H    0.000045
    20  H    0.000027
    21  H    0.000046
    22  H   -0.000033
    23  H    0.000016
    24  H   -0.000260
    25  H    0.626487
 Mulliken charges:
               1
     1  C   -1.140134
     2  C   -0.059644
     3  N    0.054764
     4  C   -1.406026
     5  C    0.601130
     6  C   -0.932895
     7  C    0.513800
     8  C   -1.334204
     9  C    2.434762
    10  C   -0.431473
    11  O   -0.924857
    12  O   -0.545379
    13  H    0.259522
    14  H    0.315554
    15  H    0.144846
    16  H    0.293601
    17  H    0.352642
    18  H    0.261674
    19  H    0.230935
    20  H    0.183711
    21  H    0.267890
    22  H    0.178222
    23  H    0.220347
    24  H    0.200470
    25  H    0.260741
 Sum of Mulliken charges =   0.00000
 Mulliken charges with hydrogens summed into heavy atoms:
               1
     1  C   -0.420211
     2  C   -0.059644
     3  N    0.054764
     4  C   -0.498109
     5  C    0.601130
     6  C   -0.250358
     7  C    0.513800
     8  C   -0.735165
     9  C    2.434762
    10  C   -0.431473
    11  O   -0.924857
    12  O   -0.284638
 Electronic spatial extent (au):  <R**2>=           2088.0698
 Charge=              0.0000 electrons
 Dipole moment (field-independent basis, Debye):
    X=             -4.0252    Y=             -3.2210    Z=              0.0840  Tot=              5.1560
 Quadrupole moment (field-independent basis, Debye-Ang):
   XX=            -65.7655   YY=            -70.8431   ZZ=            -72.4915
   XY=             -3.6677   XZ=              0.1185   YZ=              0.1890
 Traceless Quadrupole moment (field-independent basis, Debye-Ang):
   XX=              3.9345   YY=             -1.1431   ZZ=             -2.7914
   XY=             -3.6677   XZ=              0.1185   YZ=              0.1890
 Octapole moment (field-independent basis, Debye-Ang**2):
  XXX=             16.0303  YYY=            -12.5381  ZZZ=              0.1446  XYY=            -14.9863
  XXY=            -25.0910  XXZ=              1.2838  XZZ=              5.2274  YZZ=             -2.7206
  YYZ=             -0.1971  XYZ=              1.2656
 Hexadecapole moment (field-independent basis, Debye-Ang**3):
 XXXX=          -1350.8936 YYYY=          -1111.7909 ZZZZ=           -104.7210 XXXY=            -53.2056
 XXXZ=              2.2985 YYYX=             -3.5603 YYYZ=             -2.0299 ZZZX=             -0.0353
 ZZZY=             -0.3861 XXYY=           -458.9281 XXZZ=           -269.5095 YYZZ=           -199.6245
 XXYZ=              1.9292 YYXZ=              1.1943 ZZXY=              4.2516
 N-N= 7.423494765524D+02 E-N=-2.781276266598D+03  KE= 5.538091616943D+02
 ******************************Gaussian NBO Version 3.1******************************
             N A T U R A L   A T O M I C   O R B I T A L   A N D
          N A T U R A L   B O N D   O R B I T A L   A N A L Y S I S
 ******************************Gaussian NBO Version 3.1******************************
       /RESON  / : Allow strongly delocalized NBO set

 Analyzing the SCF density

 Job title: 11                                                              

 Storage needed:   2176127 in NPA,   2900028 in NBO (********** available)
 GSVD:  LWork=       32721 too small for GESVD, short by     1344965 words or     1344965 for optimal perf.


 NATURAL POPULATIONS:  Natural atomic orbital occupancies 
                                                          
   NAO  Atom  No  lang   Type(AO)    Occupancy      Energy
 ----------------------------------------------------------
     1    C    1  S      Cor( 1S)     1.99948     -10.40965
     2    C    1  S      Val( 2S)     1.10819      -0.30803
     3    C    1  S      Ryd( 3S)     0.00067       1.30916
     4    C    1  S      Ryd( 5S)     0.00007       6.58952
     5    C    1  S      Ryd( 4S)     0.00002       1.39518
     6    C    1  px     Val( 2p)     1.20801      -0.12444
     7    C    1  px     Ryd( 3p)     0.00118       1.32954
     8    C    1  px     Ryd( 5p)     0.00009       1.71994
     9    C    1  px     Ryd( 4p)     0.00002       1.58224
    10    C    1  py     Val( 2p)     1.06941      -0.10138
    11    C    1  py     Ryd( 3p)     0.00075       1.28225
    12    C    1  py     Ryd( 5p)     0.00006       1.71229
    13    C    1  py     Ryd( 4p)     0.00001       1.55959
    14    C    1  pz     Val( 2p)     1.23102      -0.12769
    15    C    1  pz     Ryd( 3p)     0.00027       1.24612
    16    C    1  pz     Ryd( 5p)     0.00005       1.53481
    17    C    1  pz     Ryd( 4p)     0.00002       1.29316
    18    C    1  dxy    Ryd( 4d)     0.00136       1.90158
    19    C    1  dxy    Ryd( 5d)     0.00004       3.58121
    20    C    1  dxy    Ryd( 3d)     0.00003       1.43852
    21    C    1  dxz    Ryd( 4d)     0.00180       1.68501
    22    C    1  dxz    Ryd( 5d)     0.00002       3.58805
    23    C    1  dxz    Ryd( 3d)     0.00001       1.49307
    24    C    1  dyz    Ryd( 4d)     0.00076       1.57178
    25    C    1  dyz    Ryd( 5d)     0.00001       3.31815
    26    C    1  dyz    Ryd( 3d)     0.00002       1.27560
    27    C    1  dx2y2  Ryd( 4d)     0.00090       1.86969
    28    C    1  dx2y2  Ryd( 5d)     0.00007       3.47872
    29    C    1  dx2y2  Ryd( 3d)     0.00002       1.18766
    30    C    1  dz2    Ryd( 4d)     0.00195       1.84930
    31    C    1  dz2    Ryd( 5d)     0.00004       3.66160
    32    C    1  dz2    Ryd( 3d)     0.00002       1.69237
    33    C    1  f(0)   Ryd( 5f)     0.00003       3.97260
    34    C    1  f(0)   Ryd( 4f)     0.00001       2.32329
    35    C    1  f(C1)  Ryd( 5f)     0.00012       4.15345
    36    C    1  f(C1)  Ryd( 4f)     0.00003       3.16324
    37    C    1  f(S1)  Ryd( 5f)     0.00005       3.97608
    38    C    1  f(S1)  Ryd( 4f)     0.00003       3.76457
    39    C    1  f(C2)  Ryd( 5f)     0.00001       3.92429
    40    C    1  f(C2)  Ryd( 4f)     0.00002       2.64438
    41    C    1  f(S2)  Ryd( 5f)     0.00003       3.96143
    42    C    1  f(S2)  Ryd( 4f)     0.00002       2.40616
    43    C    1  f(C3)  Ryd( 5f)     0.00006       4.09082
    44    C    1  f(C3)  Ryd( 4f)     0.00004       3.01798
    45    C    1  f(S3)  Ryd( 5f)     0.00004       4.11961
    46    C    1  f(S3)  Ryd( 4f)     0.00004       2.74247
 
    47    C    2  S      Cor( 1S)     1.99897     -10.40037
    48    C    2  S      Val( 2S)     0.81133      -0.06569
    49    C    2  S      Ryd( 4S)     0.00128       1.77385
    50    C    2  S      Ryd( 5S)     0.00012       3.01016
    51    C    2  S      Ryd( 3S)     0.00001       1.64980
    52    C    2  px     Val( 2p)     0.87863       0.00090
    53    C    2  px     Ryd( 4p)     0.00366       1.85996
    54    C    2  px     Ryd( 5p)     0.00007       2.78523
    55    C    2  px     Ryd( 3p)     0.00004       1.18524
    56    C    2  py     Val( 2p)     1.05798      -0.05963
    57    C    2  py     Ryd( 5p)     0.00391       2.37631
    58    C    2  py     Ryd( 4p)     0.00008       2.34646
    59    C    2  py     Ryd( 3p)     0.00001       1.08630
    60    C    2  pz     Val( 2p)     1.02177      -0.10919
    61    C    2  pz     Ryd( 4p)     0.00438       1.10014
    62    C    2  pz     Ryd( 5p)     0.00017       1.62256
    63    C    2  pz     Ryd( 3p)     0.00008       0.69542
    64    C    2  dxy    Ryd( 4d)     0.00048       3.76964
    65    C    2  dxy    Ryd( 3d)     0.00040       3.15631
    66    C    2  dxy    Ryd( 5d)     0.00002       4.76674
    67    C    2  dxz    Ryd( 4d)     0.00071       2.24516
    68    C    2  dxz    Ryd( 3d)     0.00021       2.06532
    69    C    2  dxz    Ryd( 5d)     0.00007       2.92937
    70    C    2  dyz    Ryd( 4d)     0.00048       2.36574
    71    C    2  dyz    Ryd( 3d)     0.00016       2.05603
    72    C    2  dyz    Ryd( 5d)     0.00006       3.09543
    73    C    2  dx2y2  Ryd( 4d)     0.00066       3.23080
    74    C    2  dx2y2  Ryd( 3d)     0.00069       3.16483
    75    C    2  dx2y2  Ryd( 5d)     0.00010       4.37471
    76    C    2  dz2    Ryd( 4d)     0.00056       2.88237
    77    C    2  dz2    Ryd( 3d)     0.00044       2.22615
    78    C    2  dz2    Ryd( 5d)     0.00005       5.58130
    79    C    2  f(0)   Ryd( 4f)     0.00027       1.51733
    80    C    2  f(0)   Ryd( 5f)     0.00018       3.70780
    81    C    2  f(C1)  Ryd( 4f)     0.00029       1.84892
    82    C    2  f(C1)  Ryd( 5f)     0.00008       4.01590
    83    C    2  f(S1)  Ryd( 4f)     0.00070       2.02733
    84    C    2  f(S1)  Ryd( 5f)     0.00020       3.84616
    85    C    2  f(C2)  Ryd( 4f)     0.00085       1.37391
    86    C    2  f(C2)  Ryd( 5f)     0.00001       3.77466
    87    C    2  f(S2)  Ryd( 4f)     0.00051       1.42493
    88    C    2  f(S2)  Ryd( 5f)     0.00001       3.87736
    89    C    2  f(C3)  Ryd( 4f)     0.00099       3.18260
    90    C    2  f(C3)  Ryd( 5f)     0.00007       4.63596
    91    C    2  f(S3)  Ryd( 4f)     0.00253       2.51113
    92    C    2  f(S3)  Ryd( 5f)     0.00007       4.83181
 
    93    N    3  S      Cor( 1S)     1.99901     -14.58418
    94    N    3  S      Val( 2S)     1.13560      -0.51577
    95    N    3  S      Ryd( 4S)     0.00072       2.17806
    96    N    3  S      Ryd( 5S)     0.00003      10.91448
    97    N    3  S      Ryd( 3S)     0.00001       1.79939
    98    N    3  px     Val( 2p)     1.31603      -0.30058
    99    N    3  px     Ryd( 3p)     0.00218       2.76355
   100    N    3  px     Ryd( 5p)     0.00005       4.23007
   101    N    3  px     Ryd( 4p)     0.00003       2.82771
   102    N    3  py     Val( 2p)     1.32265      -0.30033
   103    N    3  py     Ryd( 3p)     0.00228       2.68490
   104    N    3  py     Ryd( 5p)     0.00006       4.30254
   105    N    3  py     Ryd( 4p)     0.00004       2.83444
   106    N    3  pz     Val( 2p)     1.51566      -0.30389
   107    N    3  pz     Ryd( 3p)     0.00398       0.87944
   108    N    3  pz     Ryd( 5p)     0.00012       2.68661
   109    N    3  pz     Ryd( 4p)     0.00002       1.91952
   110    N    3  dxy    Ryd( 3d)     0.00059       4.67147
   111    N    3  dxy    Ryd( 4d)     0.00036       5.04412
   112    N    3  dxy    Ryd( 5d)     0.00007       5.36421
   113    N    3  dxz    Ryd( 3d)     0.00068       2.17864
   114    N    3  dxz    Ryd( 4d)     0.00021       3.31289
   115    N    3  dxz    Ryd( 5d)     0.00007       3.34574
   116    N    3  dyz    Ryd( 3d)     0.00098       2.18345
   117    N    3  dyz    Ryd( 4d)     0.00009       3.33837
   118    N    3  dyz    Ryd( 5d)     0.00005       3.41280
   119    N    3  dx2y2  Ryd( 5d)     0.00181       5.68175
   120    N    3  dx2y2  Ryd( 4d)     0.00031       5.29998
   121    N    3  dx2y2  Ryd( 3d)     0.00008       4.72696
   122    N    3  dz2    Ryd( 3d)     0.00113       3.22012
   123    N    3  dz2    Ryd( 4d)     0.00011       3.50251
   124    N    3  dz2    Ryd( 5d)     0.00009       4.99080
   125    N    3  f(0)   Ryd( 4f)     0.00217       1.79268
   126    N    3  f(0)   Ryd( 5f)     0.00010       4.97672
   127    N    3  f(C1)  Ryd( 4f)     0.00171       2.62755
   128    N    3  f(C1)  Ryd( 5f)     0.00006       5.05477
   129    N    3  f(S1)  Ryd( 4f)     0.00166       2.55824
   130    N    3  f(S1)  Ryd( 5f)     0.00007       5.06214
   131    N    3  f(C2)  Ryd( 4f)     0.00021       1.72857
   132    N    3  f(C2)  Ryd( 5f)     0.00006       5.04428
   133    N    3  f(S2)  Ryd( 4f)     0.00066       1.69336
   134    N    3  f(S2)  Ryd( 5f)     0.00007       5.01498
   135    N    3  f(C3)  Ryd( 4f)     0.00095       2.70805
   136    N    3  f(C3)  Ryd( 5f)     0.00017       5.55872
   137    N    3  f(S3)  Ryd( 4f)     0.00098       3.21686
   138    N    3  f(S3)  Ryd( 5f)     0.00016       5.54794
 
   139    C    4  S      Cor( 1S)     1.99945     -10.46827
   140    C    4  S      Val( 2S)     1.08986      -0.32753
   141    C    4  S      Ryd( 4S)     0.00057       1.23989
   142    C    4  S      Ryd( 5S)     0.00005       4.41445
   143    C    4  S      Ryd( 3S)     0.00001       1.05278
   144    C    4  px     Val( 2p)     1.01732      -0.11901
   145    C    4  px     Ryd( 4p)     0.00168       1.29661
   146    C    4  px     Ryd( 5p)     0.00009       1.56958
   147    C    4  px     Ryd( 3p)     0.00002       1.28340
   148    C    4  py     Val( 2p)     1.06265      -0.13221
   149    C    4  py     Ryd( 4p)     0.00168       1.24887
   150    C    4  py     Ryd( 5p)     0.00008       1.61332
   151    C    4  py     Ryd( 3p)     0.00001       1.18811
   152    C    4  pz     Val( 2p)     1.20967      -0.15508
   153    C    4  pz     Ryd( 4p)     0.00061       1.12847
   154    C    4  pz     Ryd( 5p)     0.00009       1.84671
   155    C    4  pz     Ryd( 3p)     0.00002       1.05721
   156    C    4  dxy    Ryd( 4d)     0.00147       2.39050
   157    C    4  dxy    Ryd( 5d)     0.00006       3.78740
   158    C    4  dxy    Ryd( 3d)     0.00001       1.29576
   159    C    4  dxz    Ryd( 4d)     0.00082       1.62511
   160    C    4  dxz    Ryd( 5d)     0.00003       3.25937
   161    C    4  dxz    Ryd( 3d)     0.00003       1.31226
   162    C    4  dyz    Ryd( 4d)     0.00205       1.70463
   163    C    4  dyz    Ryd( 5d)     0.00005       3.52534
   164    C    4  dyz    Ryd( 3d)     0.00001       1.45372
   165    C    4  dx2y2  Ryd( 4d)     0.00039       1.87023
   166    C    4  dx2y2  Ryd( 5d)     0.00007       3.57422
   167    C    4  dx2y2  Ryd( 3d)     0.00001       1.30369
   168    C    4  dz2    Ryd( 4d)     0.00154       1.94683
   169    C    4  dz2    Ryd( 5d)     0.00004       3.65161
   170    C    4  dz2    Ryd( 3d)     0.00002       1.48329
   171    C    4  f(0)   Ryd( 5f)     0.00004       3.87922
   172    C    4  f(0)   Ryd( 4f)     0.00002       2.52359
   173    C    4  f(C1)  Ryd( 5f)     0.00002       3.87521
   174    C    4  f(C1)  Ryd( 4f)     0.00004       3.20962
   175    C    4  f(S1)  Ryd( 5f)     0.00010       4.27095
   176    C    4  f(S1)  Ryd( 4f)     0.00003       3.25858
   177    C    4  f(C2)  Ryd( 5f)     0.00002       3.79148
   178    C    4  f(C2)  Ryd( 4f)     0.00001       2.99890
   179    C    4  f(S2)  Ryd( 5f)     0.00004       3.85139
   180    C    4  f(S2)  Ryd( 4f)     0.00006       2.54622
   181    C    4  f(C3)  Ryd( 5f)     0.00002       3.93735
   182    C    4  f(C3)  Ryd( 4f)     0.00003       2.82681
   183    C    4  f(S3)  Ryd( 5f)     0.00003       4.05395
   184    C    4  f(S3)  Ryd( 4f)     0.00004       2.87446
 
   185    C    5  S      Cor( 1S)     1.99885     -10.38447
   186    C    5  S      Val( 2S)     0.80846      -0.05763
   187    C    5  S      Ryd( 4S)     0.00098       1.78112
   188    C    5  S      Ryd( 5S)     0.00012       2.94798
   189    C    5  S      Ryd( 3S)     0.00001       1.77860
   190    C    5  px     Val( 2p)     1.08702      -0.07270
   191    C    5  px     Ryd( 4p)     0.00392       2.28575
   192    C    5  px     Ryd( 5p)     0.00003       2.72516
   193    C    5  px     Ryd( 3p)     0.00004       0.82837
   194    C    5  py     Val( 2p)     0.88417       0.00271
   195    C    5  py     Ryd( 4p)     0.00352       1.88851
   196    C    5  py     Ryd( 5p)     0.00005       2.88648
   197    C    5  py     Ryd( 3p)     0.00002       0.96454
   198    C    5  pz     Val( 2p)     1.08916      -0.10800
   199    C    5  pz     Ryd( 4p)     0.00430       1.07973
   200    C    5  pz     Ryd( 5p)     0.00008       1.75113
   201    C    5  pz     Ryd( 3p)     0.00008       0.64684
   202    C    5  dxy    Ryd( 4d)     0.00051       4.19884
   203    C    5  dxy    Ryd( 3d)     0.00013       2.15057
   204    C    5  dxy    Ryd( 5d)     0.00002       4.78251
   205    C    5  dxz    Ryd( 5d)     0.00040       3.25303
   206    C    5  dxz    Ryd( 3d)     0.00013       1.15772
   207    C    5  dxz    Ryd( 4d)     0.00006       3.07563
   208    C    5  dyz    Ryd( 5d)     0.00056       3.36704
   209    C    5  dyz    Ryd( 3d)     0.00045       0.95167
   210    C    5  dyz    Ryd( 4d)     0.00007       2.96448
   211    C    5  dx2y2  Ryd( 4d)     0.00068       4.31123
   212    C    5  dx2y2  Ryd( 3d)     0.00033       2.65060
   213    C    5  dx2y2  Ryd( 5d)     0.00008       4.62629
   214    C    5  dz2    Ryd( 4d)     0.00034       4.21003
   215    C    5  dz2    Ryd( 3d)     0.00046       0.89502
   216    C    5  dz2    Ryd( 5d)     0.00003       5.79345
   217    C    5  f(0)   Ryd( 4f)     0.00034       1.52922
   218    C    5  f(0)   Ryd( 5f)     0.00018       3.71195
   219    C    5  f(C1)  Ryd( 4f)     0.00081       1.96172
   220    C    5  f(C1)  Ryd( 5f)     0.00019       3.82212
   221    C    5  f(S1)  Ryd( 4f)     0.00023       1.89658
   222    C    5  f(S1)  Ryd( 5f)     0.00007       4.04834
   223    C    5  f(C2)  Ryd( 4f)     0.00030       1.39665
   224    C    5  f(C2)  Ryd( 5f)     0.00001       3.78360
   225    C    5  f(S2)  Ryd( 4f)     0.00101       1.43817
   226    C    5  f(S2)  Ryd( 5f)     0.00002       3.86659
   227    C    5  f(C3)  Ryd( 4f)     0.00261       2.15745
   228    C    5  f(C3)  Ryd( 5f)     0.00007       4.77212
   229    C    5  f(S3)  Ryd( 4f)     0.00064       3.41279
   230    C    5  f(S3)  Ryd( 5f)     0.00011       4.54882
 
   231    C    6  S      Cor( 1S)     1.99948     -10.41224
   232    C    6  S      Val( 2S)     1.10431      -0.30743
   233    C    6  S      Ryd( 3S)     0.00039       1.28622
   234    C    6  S      Ryd( 5S)     0.00007       6.47244
   235    C    6  S      Ryd( 4S)     0.00001       1.33143
   236    C    6  px     Val( 2p)     1.09561      -0.10873
   237    C    6  px     Ryd( 3p)     0.00080       1.27091
   238    C    6  px     Ryd( 5p)     0.00005       1.71458
   239    C    6  px     Ryd( 4p)     0.00001       1.29077
   240    C    6  py     Val( 2p)     1.19995      -0.12475
   241    C    6  py     Ryd( 3p)     0.00119       1.35313
   242    C    6  py     Ryd( 5p)     0.00006       1.94391
   243    C    6  py     Ryd( 4p)     0.00001       1.42306
   244    C    6  pz     Val( 2p)     1.20881      -0.12645
   245    C    6  pz     Ryd( 4p)     0.00018       1.25742
   246    C    6  pz     Ryd( 5p)     0.00003       1.63162
   247    C    6  pz     Ryd( 3p)     0.00002       1.17493
   248    C    6  dxy    Ryd( 4d)     0.00120       1.95919
   249    C    6  dxy    Ryd( 5d)     0.00006       3.50461
   250    C    6  dxy    Ryd( 3d)     0.00001       1.14187
   251    C    6  dxz    Ryd( 4d)     0.00170       1.67803
   252    C    6  dxz    Ryd( 5d)     0.00001       3.52128
   253    C    6  dxz    Ryd( 3d)     0.00003       1.39157
   254    C    6  dyz    Ryd( 4d)     0.00107       1.63423
   255    C    6  dyz    Ryd( 5d)     0.00002       3.39452
   256    C    6  dyz    Ryd( 3d)     0.00001       1.32736
   257    C    6  dx2y2  Ryd( 4d)     0.00093       1.88345
   258    C    6  dx2y2  Ryd( 5d)     0.00004       3.61052
   259    C    6  dx2y2  Ryd( 3d)     0.00001       1.22419
   260    C    6  dz2    Ryd( 4d)     0.00157       1.84313
   261    C    6  dz2    Ryd( 5d)     0.00005       3.62985
   262    C    6  dz2    Ryd( 3d)     0.00001       1.41598
   263    C    6  f(0)   Ryd( 5f)     0.00004       3.91219
   264    C    6  f(0)   Ryd( 4f)     0.00001       2.51625
   265    C    6  f(C1)  Ryd( 5f)     0.00010       4.03202
   266    C    6  f(C1)  Ryd( 4f)     0.00003       3.84175
   267    C    6  f(S1)  Ryd( 5f)     0.00003       3.89198
   268    C    6  f(S1)  Ryd( 4f)     0.00003       2.93076
   269    C    6  f(C2)  Ryd( 5f)     0.00003       3.86510
   270    C    6  f(C2)  Ryd( 4f)     0.00002       2.59345
   271    C    6  f(S2)  Ryd( 5f)     0.00002       3.80177
   272    C    6  f(S2)  Ryd( 4f)     0.00003       2.80994
   273    C    6  f(C3)  Ryd( 5f)     0.00001       3.91396
   274    C    6  f(C3)  Ryd( 4f)     0.00003       2.76478
   275    C    6  f(S3)  Ryd( 5f)     0.00008       3.91999
   276    C    6  f(S3)  Ryd( 4f)     0.00003       3.25753
 
   277    C    7  S      Cor( 1S)     1.99887     -10.34649
   278    C    7  S      Val( 2S)     0.86458      -0.08707
   279    C    7  S      Ryd( 3S)     0.00078       1.87026
   280    C    7  S      Ryd( 5S)     0.00011       3.22195
   281    C    7  S      Ryd( 4S)     0.00001       2.56701
   282    C    7  px     Val( 2p)     1.02729      -0.01909
   283    C    7  px     Ryd( 4p)     0.00318       1.84245
   284    C    7  px     Ryd( 5p)     0.00006       3.09233
   285    C    7  px     Ryd( 3p)     0.00003       0.89222
   286    C    7  py     Val( 2p)     1.05412      -0.03241
   287    C    7  py     Ryd( 4p)     0.00389       2.48480
   288    C    7  py     Ryd( 5p)     0.00007       3.65624
   289    C    7  py     Ryd( 3p)     0.00004       0.68258
   290    C    7  pz     Val( 2p)     1.05109      -0.08431
   291    C    7  pz     Ryd( 4p)     0.00231       1.07196
   292    C    7  pz     Ryd( 5p)     0.00019       2.05326
   293    C    7  pz     Ryd( 3p)     0.00003       0.58196
   294    C    7  dxy    Ryd( 3d)     0.00087       3.84184
   295    C    7  dxy    Ryd( 4d)     0.00051       3.99472
   296    C    7  dxy    Ryd( 5d)     0.00003       4.80957
   297    C    7  dxz    Ryd( 3d)     0.00140       1.56318
   298    C    7  dxz    Ryd( 5d)     0.00010       2.97823
   299    C    7  dxz    Ryd( 4d)     0.00001       2.80819
   300    C    7  dyz    Ryd( 3d)     0.00065       1.65891
   301    C    7  dyz    Ryd( 5d)     0.00017       3.01530
   302    C    7  dyz    Ryd( 4d)     0.00007       2.81670
   303    C    7  dx2y2  Ryd( 3d)     0.00105       2.72406
   304    C    7  dx2y2  Ryd( 4d)     0.00028       3.85448
   305    C    7  dx2y2  Ryd( 5d)     0.00008       4.40222
   306    C    7  dz2    Ryd( 3d)     0.00087       1.69130
   307    C    7  dz2    Ryd( 4d)     0.00015       3.49670
   308    C    7  dz2    Ryd( 5d)     0.00005       4.90956
   309    C    7  f(0)   Ryd( 4f)     0.00045       1.54111
   310    C    7  f(0)   Ryd( 5f)     0.00019       3.71413
   311    C    7  f(C1)  Ryd( 4f)     0.00045       1.85703
   312    C    7  f(C1)  Ryd( 5f)     0.00015       3.78361
   313    C    7  f(S1)  Ryd( 4f)     0.00094       2.09340
   314    C    7  f(S1)  Ryd( 5f)     0.00017       3.89963
   315    C    7  f(C2)  Ryd( 4f)     0.00088       1.34915
   316    C    7  f(C2)  Ryd( 5f)     0.00002       3.77105
   317    C    7  f(S2)  Ryd( 4f)     0.00057       1.40832
   318    C    7  f(S2)  Ryd( 5f)     0.00003       3.80916
   319    C    7  f(C3)  Ryd( 4f)     0.00144       3.00579
   320    C    7  f(C3)  Ryd( 5f)     0.00010       4.63053
   321    C    7  f(S3)  Ryd( 4f)     0.00181       2.97418
   322    C    7  f(S3)  Ryd( 5f)     0.00011       4.54408
 
   323    C    8  S      Cor( 1S)     1.99947     -10.37474
   324    C    8  S      Val( 2S)     1.09548      -0.26870
   325    C    8  S      Ryd( 3S)     0.00083       1.48795
   326    C    8  S      Ryd( 5S)     0.00007       5.48555
   327    C    8  S      Ryd( 4S)     0.00002       1.68846
   328    C    8  px     Val( 2p)     1.20136      -0.08757
   329    C    8  px     Ryd( 3p)     0.00152       1.39425
   330    C    8  px     Ryd( 5p)     0.00010       1.68548
   331    C    8  px     Ryd( 4p)     0.00003       1.53842
   332    C    8  py     Val( 2p)     1.06946      -0.06731
   333    C    8  py     Ryd( 3p)     0.00070       1.36511
   334    C    8  py     Ryd( 5p)     0.00007       1.81911
   335    C    8  py     Ryd( 4p)     0.00001       1.47242
   336    C    8  pz     Val( 2p)     1.22347      -0.09440
   337    C    8  pz     Ryd( 4p)     0.00047       1.28310
   338    C    8  pz     Ryd( 5p)     0.00004       1.57265
   339    C    8  pz     Ryd( 3p)     0.00002       1.21148
   340    C    8  dxy    Ryd( 4d)     0.00106       1.98871
   341    C    8  dxy    Ryd( 5d)     0.00003       3.63317
   342    C    8  dxy    Ryd( 3d)     0.00002       1.45004
   343    C    8  dxz    Ryd( 4d)     0.00161       1.69394
   344    C    8  dxz    Ryd( 5d)     0.00002       3.62398
   345    C    8  dxz    Ryd( 3d)     0.00002       1.48777
   346    C    8  dyz    Ryd( 4d)     0.00064       1.60002
   347    C    8  dyz    Ryd( 5d)     0.00001       3.33082
   348    C    8  dyz    Ryd( 3d)     0.00003       1.32429
   349    C    8  dx2y2  Ryd( 4d)     0.00122       2.06395
   350    C    8  dx2y2  Ryd( 5d)     0.00009       3.59565
   351    C    8  dx2y2  Ryd( 3d)     0.00001       1.26372
   352    C    8  dz2    Ryd( 4d)     0.00196       1.86004
   353    C    8  dz2    Ryd( 5d)     0.00004       3.69025
   354    C    8  dz2    Ryd( 3d)     0.00003       1.68006
   355    C    8  f(0)   Ryd( 5f)     0.00001       3.95733
   356    C    8  f(0)   Ryd( 4f)     0.00001       2.20192
   357    C    8  f(C1)  Ryd( 5f)     0.00012       4.22475
   358    C    8  f(C1)  Ryd( 4f)     0.00002       3.17911
   359    C    8  f(S1)  Ryd( 4f)     0.00005       3.98310
   360    C    8  f(S1)  Ryd( 5f)     0.00003       4.05058
   361    C    8  f(C2)  Ryd( 5f)     0.00001       3.91559
   362    C    8  f(C2)  Ryd( 4f)     0.00003       2.47082
   363    C    8  f(S2)  Ryd( 5f)     0.00002       3.96352
   364    C    8  f(S2)  Ryd( 4f)     0.00002       2.44571
   365    C    8  f(C3)  Ryd( 5f)     0.00003       4.08730
   366    C    8  f(C3)  Ryd( 4f)     0.00004       2.87241
   367    C    8  f(S3)  Ryd( 5f)     0.00006       4.19707
   368    C    8  f(S3)  Ryd( 4f)     0.00003       3.04609
 
   369    C    9  S      Cor( 1S)     1.99868     -10.32272
   370    C    9  S      Val( 2S)     0.87039      -0.05438
   371    C    9  S      Ryd( 3S)     0.00066       2.12306
[...]
 ,-0.00015277,-0.00028880,-0.00006753,-0.00041524,-0.01085688,-0.020230
 41,-0.00917802,0.08910842,0.24939042,-0.00026354,-0.00047838,-0.000000
 74,0.00260383,-0.00377869,0.00330906,-0.01047336,-0.02588087,-0.031098
 39,-0.03714944,-0.08349238,-0.08443313,-0.00441719,0.00006958,0.001570
 65,-0.00010100,-0.00016050,-0.00001164,-0.00111136,0.00130080,-0.00229
 708,0.00014380,0.00052382,-0.00002918,0.00182570,0.00004080,-0.0029570
 5,0.00131568,-0.00016938,0.00116301,-0.00016458,-0.00003247,-0.0006996
 1,-0.00052829,0.00028086,-0.00007790,0.00000220,0.00010065,0.00006072,
 -0.00019567,0.00016836,0.00012820,-0.00040425,0.00031106,0.00005011,0.
 00512207,0.00814869,0.00523960,0.04148160,0.09681976,0.10592971,0.0001
 5395,0.00163772,-0.00158674,-0.00070502,0.00148772,-0.00052487,0.00201
 036,0.00141571,0.00381844,-0.30455586,-0.02945402,0.06694268,0.0006071
 1,-0.00113774,-0.00093720,-0.00018447,-0.00004003,0.00012693,-0.000099
 09,-0.00002158,0.00006230,0.00007641,0.00003350,0.00002492,0.00002301,
 -0.00021136,0.00025562,-0.00027324,0.00011805,-0.00018748,0.00008219,-
 0.00003358,0.00009315,0.00014863,-0.00010369,-0.00001003,0.00012058,-0
 .00024404,-0.00041718,-0.00037194,0.00010725,-0.00018929,-0.00047294,-
 0.00043418,-0.00030990,-0.01338416,-0.00267723,0.00292966,-0.01038752,
 -0.00042576,0.00162257,0.32702712,-0.00003313,-0.00015773,0.00028400,-
 0.00066663,0.00099406,-0.00026532,0.00071242,-0.00011268,0.00138079,-0
 .02899851,-0.05156046,0.00711428,0.00092332,-0.00039739,-0.00102762,0.
 00031520,-0.00020522,-0.00037071,0.00038595,-0.00028020,0.00036455,0.0
 0005350,0.00002021,-0.00004470,-0.00024651,-0.00010326,0.00054767,-0.0
 0025169,0.00019275,-0.00007457,0.00003670,-0.00003144,0.00001539,0.000
 12187,-0.00006977,-0.00008937,0.00002896,-0.00006184,-0.00010537,0.000
 36350,0.00020874,0.00030438,0.00011208,-0.00091892,0.00040331,0.024691
 99,0.00472354,-0.00760344,-0.02748322,-0.00225084,0.00673714,0.0299804
 2,0.04990837,0.00026676,0.00094238,-0.00001636,0.00164715,-0.00128433,
 0.00234556,0.03855532,-0.00007061,-0.01965505,0.05714126,0.00704417,-0
 .06285831,-0.00264124,0.00464637,-0.00208611,-0.00049883,0.00024991,-0
 .00001097,0.00054437,-0.00038616,-0.00173291,-0.00053947,-0.00020864,-
 0.00030909,0.00080203,-0.00037405,-0.00107809,0.00039830,-0.00058036,0
 .00035847,-0.00006984,0.00014474,-0.00014752,-0.00033289,0.00020455,0.
 00003403,-0.00015038,-0.00027494,-0.00000861,-0.00108488,0.00021001,-0
 .00025213,-0.00046042,0.00025158,-0.00010180,-0.01021839,-0.00307425,0
 .00312778,-0.01206531,0.00005975,0.00406719,-0.07187050,-0.00736911,0.
 07816816,-0.00011398,0.00022483,-0.00043550,-0.00037035,0.00024451,0.0
 0128109,-0.00278636,0.00238905,-0.00307322,0.00022977,0.00005684,-0.00
 091545,-0.01704211,0.00506127,0.01862412,-0.17702046,0.04880805,0.1296
 3929,0.00071548,-0.00030649,0.00095993,-0.00034709,0.00004715,-0.00000
 365,-0.00037898,0.00016938,-0.00029515,-0.00000866,-0.00012024,0.00067
 724,0.00022496,-0.00008747,-0.00039538,0.00002734,-0.00000578,-0.00008
 301,-0.00012195,0.00005279,0.00007465,0.00002557,-0.00002647,0.0000076
 6,0.00003207,-0.00002303,0.00000477,0.00007096,-0.00022413,-0.00019510
 ,-0.00009051,0.00011632,0.00004468,0.00003006,-0.00002485,0.00013755,0
 .19142271,0.00011474,-0.00012715,0.00028802,0.00044166,0.00023608,-0.0
 0096158,0.00290177,-0.00106605,0.00247053,-0.00008498,0.00004402,0.000
 65507,0.01048538,-0.00581003,-0.01318098,0.04804276,-0.06256202,-0.047
 30739,-0.00045133,0.00027165,-0.00041169,0.00007761,-0.00032910,0.0000
 4161,0.00008382,-0.00022221,0.00015651,-0.00003975,0.00002419,-0.00036
 618,-0.00012713,0.00003067,0.00021907,-0.00002148,0.00000867,0.0000357
 4,0.00007432,-0.00004556,-0.00005527,-0.00001733,0.00001481,0.00000229
 ,-0.00001845,0.00000461,-0.00000700,-0.00007172,-0.00013825,-0.0002024
 8,-0.00012797,0.00013024,-0.00003911,0.00001520,0.00005511,-0.00002370
 ,-0.05502201,0.06559557,-0.00008785,0.00012587,-0.00021956,-0.00039292
 ,0.00025790,0.00054670,-0.00321528,0.00219436,-0.00160461,0.00009759,0
 .00044778,-0.00083216,-0.00990102,0.00266775,0.01304032,0.13286917,-0.
 04906207,-0.17674379,0.00084708,-0.00041805,-0.00069357,-0.00100076,0.
 00078014,-0.00069428,-0.00007440,0.00002360,0.00021784,-0.00005343,0.0
 0002313,-0.00002578,0.00005400,-0.00003387,-0.00002160,0.00010464,-0.0
 0006510,0.00003960,-0.00007196,0.00003283,0.00004784,0.00000386,-0.000
 01930,-0.00000739,0.00001534,0.00000694,-0.00000738,0.00014324,-0.0004
 5277,0.00014507,-0.00003609,0.00002271,0.00007369,0.00008413,-0.000142
 88,0.00017258,-0.14176231,0.05090907,0.19308851,0.00029424,0.00001645,
 0.00013807,-0.00125420,0.00114903,-0.00242145,0.00262773,-0.00118002,0
 .00044713,-0.00015013,0.00007989,-0.00058537,-0.01250043,-0.01089415,-
 0.01976293,-0.09794890,-0.06666375,-0.08132310,-0.00132410,-0.00013158
 ,0.00219328,-0.00036583,0.00001370,0.00008710,-0.00078010,0.00143692,0
 .00041036,0.00014255,0.00024057,0.00065744,0.00000585,-0.00000534,-0.0
 0021298,-0.00026285,0.00009897,-0.00017205,0.00001248,-0.00000511,-0.0
 0000212,-0.00009650,-0.00003255,0.00005251,-0.00010820,0.00013979,0.00
 005347,-0.00080346,-0.00060112,0.00045128,-0.00017205,0.00027882,0.000
 27689,0.00020614,-0.00011878,0.00024638,0.01156478,0.01325201,0.015020
 15,0.10616065,-0.00017399,-0.00009840,-0.00003155,0.00007843,-0.000515
 04,0.00086626,-0.00099133,0.00095166,-0.00057329,0.00031432,0.00083716
 ,-0.00044020,0.00867464,0.01232649,0.01552130,-0.06562400,-0.12951497,
 -0.10353596,0.00149986,-0.00055863,-0.00013165,0.00035171,0.00011848,-
 0.00004898,0.00006254,-0.00108188,0.00026497,-0.00002904,-0.00022249,-
 0.00033353,-0.00002615,0.00001830,0.00012246,0.00011602,-0.00001453,0.
 00009819,-0.00001715,0.00001077,0.00001512,-0.00001414,0.00005650,-0.0
 0005156,0.00005746,-0.00000363,-0.00000450,0.00013494,-0.00047158,-0.0
 0016107,-0.00011154,-0.00011178,-0.00014504,0.00008059,-0.00020896,0.0
 0009707,-0.00326205,-0.00516531,-0.00407367,0.07020432,0.13940166,-0.0
 0004517,-0.00006487,0.00012459,-0.00050120,0.00022103,-0.00055662,0.00
 134201,-0.00011646,0.00015779,0.00004801,0.00031190,0.00007950,-0.0070
 3558,-0.00435575,-0.01274509,-0.08043351,-0.10455800,-0.17255256,-0.00
 157339,0.00000236,0.00102416,-0.00027927,-0.00032522,-0.00009790,0.000
 03957,0.00067472,-0.00005435,0.00014973,0.00007224,0.00030140,-0.00008
 156,0.00007680,-0.00013965,-0.00019757,0.00010648,-0.00012399,-0.00000
 704,0.00001049,0.00000386,-0.00007452,0.00007758,-0.00001966,-0.000048
 88,0.00006520,0.00004633,0.00055828,-0.00001356,-0.00002605,-0.0002323
 9,-0.00003458,0.00005044,0.00005755,-0.00004675,0.00013580,-0.01049638
 ,-0.01191569,-0.01467174,0.09220322,0.11196470,0.18870179,-0.00000684,
 -0.00039460,0.00000839,-0.00117891,0.00052865,-0.00205157,0.00197309,-
 0.00127048,0.00075710,-0.00023267,0.00034168,-0.00002002,0.00932102,0.
 02391430,-0.01357847,-0.07513300,-0.07297792,0.03781256,-0.00103870,0.
 00080438,0.00110973,-0.00009265,0.00042560,0.00009548,-0.00155706,-0.0
 0041148,-0.00000949,-0.00025029,-0.00027070,0.00044951,0.00004858,0.00
 001988,-0.00016943,-0.00012428,0.00016736,-0.00013963,0.00003655,-0.00
 002430,-0.00002607,-0.00011879,0.00008844,0.00003697,0.00004118,0.0000
 3736,0.00010466,-0.00025335,0.00058078,0.00070332,0.00011077,-0.000140
 54,0.00015223,-0.00003490,0.00011223,-0.00001144,-0.00758332,-0.019137
 05,0.00770573,-0.00581428,-0.01109322,0.00676972,0.08133933,-0.0000470
 6,0.00025940,-0.00011814,0.00098217,-0.00105378,0.00175481,-0.00128539
 ,0.00140763,0.00024953,-0.00015730,-0.00053271,0.00080005,-0.00037607,
 -0.01216216,0.00938002,-0.07524488,-0.22997021,0.09372019,0.00002564,-
 0.00013855,-0.00233650,0.00004120,-0.00022973,0.00007718,0.00120520,-0
 .00017783,-0.00045622,0.00003429,0.00026713,-0.00044961,0.00002750,-0.
 00004874,0.00016889,0.00020315,-0.00016253,0.00012790,-0.00001162,0.00
 000266,-0.00000245,0.00016775,-0.00000485,-0.00004527,0.00006066,-0.00
 009672,-0.00002439,0.00042148,-0.00027893,-0.00091488,-0.00014415,0.00
 018469,-0.00015456,-0.00009594,0.00023874,-0.00015721,0.00245455,0.008
 23085,-0.00366179,-0.00683272,-0.01589699,0.00773199,0.07893329,0.2500
 4076,-0.00002247,-0.00004134,0.00012961,-0.00023191,0.00048588,-0.0004
 6519,0.00079689,-0.00100375,-0.00033312,0.00007241,-0.00025366,0.00033
 851,0.00223941,0.01251941,-0.00992838,0.03928322,0.09357650,-0.0927107
 2,-0.00098002,0.00107136,0.00100980,0.00011249,0.00041607,0.00002647,-
 0.00070387,-0.00035942,-0.00025340,-0.00004633,-0.00024115,0.00033286,
 -0.00005162,0.00005089,-0.00018039,-0.00016757,0.00014029,-0.00012892,
 0.00000108,0.00000770,0.00000212,-0.00008577,0.00001494,0.00003026,-0.
 00007797,0.00003551,-0.00002823,0.00041734,-0.00035120,-0.00018534,-0.
 00008725,0.00003293,0.00008989,-0.00001011,0.00001504,0.00001586,0.006
 64076,0.01912216,-0.00928920,-0.00756812,-0.01954074,0.01035109,-0.039
 46653,-0.10578875,0.10120676,-0.00004937,-0.00009263,-0.00011073,0.000
 29849,-0.00073444,0.00148754,-0.00193082,0.00003357,0.00063621,-0.0003
 1801,-0.00017978,-0.00015445,-0.00059991,0.00097313,0.00011526,-0.0002
 3825,0.00026318,-0.00005577,0.01271872,0.01195912,0.01496219,-0.119415
 40,-0.07725766,-0.09282317,0.00010232,0.00052175,-0.00164433,-0.000244
 21,0.00045522,0.00204837,-0.00010142,0.00026618,-0.00099641,-0.0001577
 0,-0.00014705,-0.00017168,-0.00001998,0.00001727,0.00001141,-0.0000278
 0,0.00001658,0.00001456,0.00003798,-0.00002946,-0.00001230,-0.00000778
 ,-0.00000513,0.00001798,0.00002639,0.00002322,-0.00002159,-0.00001393,
 -0.00001010,0.00014466,0.00022264,-0.00018392,0.00012335,0.00019697,-0
 .00007629,-0.00008130,0.00007690,-0.00010134,0.00005533,0.12836253,0.0
 0001747,0.00006080,0.00004986,-0.00013641,0.00036486,-0.00147503,0.001
 39936,-0.00078430,-0.00011279,0.00011619,0.00004190,0.00013157,0.00006
 251,-0.00043081,0.00150184,0.00013259,0.00002181,0.00006602,-0.0025253
 5,-0.00324032,-0.00466806,-0.07629341,-0.12570757,-0.09834040,0.000132
 89,0.00042781,0.00107094,0.00098302,-0.00037686,-0.00352273,-0.0013162
 9,0.00099615,0.00175855,-0.00072051,0.00020017,0.00062744,0.00002279,-
 0.00002230,-0.00004147,0.00002816,-0.00000677,-0.00000840,-0.00000486,
 0.00000551,0.00001408,0.00000483,0.00000980,-0.00000590,-0.00001817,-0
 .00001485,-0.00000457,-0.00000052,0.00001511,-0.00005232,-0.00014462,0
 .00012918,-0.00014850,-0.00017945,0.00002377,0.00013013,-0.00005155,0.
 00004075,-0.00005737,0.08422494,0.13358365,0.00005986,0.00010227,0.000
 07515,-0.00023068,0.00044343,-0.00146127,0.00168269,0.00016350,-0.0008
 6586,0.00046070,0.00019662,0.00017143,0.00141962,-0.00201614,0.0007389
 2,-0.00011568,-0.00051052,-0.00018337,-0.01062669,-0.01289743,-0.02174
 188,-0.09375628,-0.09920896,-0.15941538,-0.00072629,0.00114568,0.00118
 820,0.00015980,-0.00066138,-0.00051319,-0.00011394,0.00089411,0.000186
 60,-0.00007431,-0.00012092,0.00013986,0.00002567,-0.00002539,-0.000017
 32,0.00006069,-0.00001840,-0.00004128,-0.00001185,0.00001258,0.0000122
 8,-0.00002234,-0.00000283,-0.00001013,-0.00002374,-0.00000378,0.000024
 01,0.00003770,-0.00001058,-0.00018234,0.00003169,-0.00008123,0.0000896
 3,-0.00000327,0.00007145,-0.00013827,-0.00006880,0.00005646,-0.0000472
 8,0.09800975,0.10813549,0.17793287,0.00009282,0.00013977,-0.00005085,0
 .00047226,-0.00036804,0.00209340,-0.00172996,0.00151799,0.00066199,0.0
 0001316,0.00037080,-0.00018087,-0.00087440,0.00026967,-0.00138834,-0.0
 0038170,0.00000909,-0.00001121,-0.00575129,-0.01510863,0.01020794,-0.0
 7180337,-0.06808797,0.04099406,0.00036246,0.00045670,-0.00170029,-0.00
 151692,-0.00027676,0.00395196,0.00131671,-0.00010089,-0.00201223,0.000
 58333,-0.00022473,-0.00064713,-0.00004203,0.00001844,0.00004355,0.0000
 2426,-0.00001435,-0.00001535,-0.00004040,0.00002295,0.00000586,0.00002
 466,-0.00002497,-0.00001644,0.00000975,-0.00000055,0.00012719,-0.00001
 335,0.00000674,0.00001747,0.00028810,-0.00006876,0.00009057,0.00011957
 ,-0.00005443,0.00007235,0.00021335,-0.00013105,-0.00011163,-0.00624685
 ,-0.01472761,0.00786065,0.07535341,-0.00002463,-0.00006734,0.00004139,
 -0.00037953,0.00003442,-0.00038960,0.00016750,-0.00067767,-0.00049680,
 -0.00002187,-0.00019335,0.00002076,0.00043004,0.00007478,-0.00087307,0
 .00023227,-0.00005216,0.00003422,0.00284665,0.01133368,-0.00461375,-0.
 06904852,-0.22907363,0.10694272,0.00062950,0.00025699,0.00084699,-0.00
 002344,0.00024733,-0.00002020,0.00120803,-0.00031897,0.00019057,0.0002
 1488,-0.00037740,-0.00022169,0.00000339,0.00000176,0.00000590,-0.00002
 632,0.00001804,0.00000616,0.00000605,0.00000379,0.00000423,-0.00000843
 ,0.00001394,0.00000032,-0.00000116,0.00000525,-0.00006715,-0.00000090,
 -0.00000261,0.00000662,-0.00018171,0.00003931,-0.00001951,-0.00006208,
 0.00001225,-0.00001757,-0.00009764,0.00004584,0.00002927,-0.00541653,-
 0.01601658,0.00849548,0.07455315,0.24704132,-0.00006188,-0.00011964,0.
 00002024,-0.00031065,0.00024944,-0.00131590,0.00055624,-0.00134448,-0.
 00109750,-0.00000625,-0.00042070,0.00009222,0.00243588,-0.00050843,0.0
 0057610,0.00036466,0.00040933,-0.00006101,0.00890131,0.01993194,-0.017
 71706,0.04112619,0.10832324,-0.10441525,-0.00132213,-0.00000415,0.0010
 0808,0.00054272,0.00029867,0.00000324,-0.00064315,-0.00037256,-0.00023
 104,0.00015541,0.00000927,0.00006633,0.00003370,-0.00001287,-0.0000071
 8,-0.00000779,-0.00000005,0.00001013,0.00004759,-0.00003070,-0.0000321
 2,0.00000155,0.00000384,0.00002247,0.00001834,-0.00001851,-0.00015652,
 0.00001119,-0.00001873,-0.00002095,0.00009390,0.00002249,0.00004813,-0
 .00007853,0.00003161,-0.00003858,-0.00005274,0.00000946,-0.00015924,-0
 .00680959,-0.01767112,0.01014110,-0.04766716,-0.11558130,0.11840496,0.
 00007399,-0.00008179,0.00027273,-0.00065245,0.00068147,-0.00059755,-0.
 00028592,-0.00011529,0.00067163,0.00005959,0.00005905,-0.00025126,0.00
 010487,0.00021008,-0.00158595,-0.00024600,-0.00007903,-0.00031480,-0.0
 1657695,0.00949036,-0.00587130,-0.21762584,0.11180791,-0.06492242,0.00
 044874,0.00003553,0.00310996,0.00065482,-0.00048543,-0.00001566,-0.000
 15777,0.00071575,-0.00008908,-0.00044103,0.00011990,-0.00008163,0.0000
 3451,-0.00002170,-0.00002744,-0.00005343,0.00001645,0.00004582,-0.0000
 6074,0.00003781,0.00006027,0.00001602,-0.00005410,0.00008583,-0.000000
 87,0.00001177,0.00007799,0.00000744,-0.00001756,0.00003282,0.00100329,
 -0.00011832,-0.00056237,0.00026287,-0.00012344,-0.00015000,0.00024711,
 -0.00010686,-0.00002529,-0.01263708,0.00885594,-0.00404809,0.00967596,
 -0.00496660,0.00267920,0.23611944,-0.00006052,0.00002101,-0.00012321,0
 .00046641,0.00001020,0.00034197,0.00005500,-0.00010390,-0.00043742,-0.
 00006410,-0.00005465,0.00013761,0.00006213,-0.00011474,0.00086090,-0.0
 0000646,-0.00017245,0.00027454,0.00578971,-0.00589096,0.00199839,0.112
 18021,-0.12163838,0.04293534,0.00015585,0.00123730,-0.00124155,-0.0005
 6713,0.00009167,0.00033155,0.00092572,0.00043740,0.00006012,0.00019886
 ,-0.00031855,-0.00005620,-0.00001529,0.00000747,0.00001601,0.00002871,
 -0.00000153,-0.00001975,0.00002975,-0.00001562,-0.00002846,0.00000313,
 0.00003261,-0.00005008,0.00000782,-0.00001856,-0.00005360,-0.00000924,
 0.00001457,-0.00001476,-0.00019839,0.00064210,0.00060200,-0.00017210,0
 .00008931,0.00002906,-0.00011970,0.00004656,0.00010225,-0.01455272,0.0
 1076973,-0.00414962,0.02174932,-0.01236926,0.00681309,-0.12584076,0.12
 729189,-0.00002367,0.00005041,-0.00032549,0.00095687,-0.00055648,0.000
 35260,0.00021146,-0.00012677,0.00008997,-0.00009316,0.00002431,-0.0000
 0654,-0.00080272,0.00039590,0.00081104,0.00048916,-0.00010066,-0.00112
 879,0.02259735,-0.01528435,0.00992879,-0.06740745,0.04442198,-0.073076
 06,0.00178983,-0.00052772,-0.00385708,0.00049015,0.00002597,-0.0023695
 7,-0.00155804,0.00093523,0.00101500,-0.00045434,0.00014855,0.00052112,
 -0.00003163,0.00001797,-0.00000536,0.00003758,-0.00001864,-0.00003664,
 0.00006020,-0.00002202,-0.00004287,0.00003105,-0.00000172,-0.00004746,
 -0.00000088,-0.00000480,-0.00001677,-0.00001247,0.00000355,0.00002772,
 -0.00057242,0.00063286,-0.00269735,-0.00012303,0.00002086,0.00017492,-
 0.00012340,0.00005311,0.00015912,-0.01475052,0.01262077,-0.00609773,-0
 .01232048,0.00567917,-0.00515105,0.07149178,-0.04831544,0.08176333,-0.
 00011112,0.00022617,0.00046756,-0.00007610,-0.00011706,-0.00052765,0.0
 0046080,-0.00030565,0.00036748,0.00003370,-0.00001782,-0.00014473,-0.0
 0059806,0.00019857,0.00039157,-0.00001821,-0.00007162,-0.00012621,0.00
 012343,0.00066460,-0.00147870,0.00013018,-0.00003922,-0.00003140,-0.00
 390307,0.00374860,0.00433335,-0.01927047,0.02004926,-0.05058486,0.0047
 0960,-0.00642507,0.00412750,-0.06638034,0.04099781,-0.08247581,0.00046
 108,-0.00027010,-0.00018080,0.00001874,-0.00011142,0.00015417,0.000053
 63,-0.00007126,0.00017415,0.00001559,-0.00001143,0.00002560,-0.0000032
 6,0.00001855,0.00003381,0.00000341,0.00000610,0.00000952,0.00000605,0.
 00000093,-0.00000044,-0.00001281,0.00002193,-0.00000267,0.00001115,-0.
 00002252,0.00001752,-0.00003445,0.00013808,0.00001315,-0.00014953,-0.0
 0003210,-0.00000800,0.00002943,-0.00004621,0.00011880,0.08450061,0.000
 05198,0.00003826,-0.00043837,-0.00016947,-0.00046261,0.00022555,-0.000
 16100,0.00026399,-0.00022997,-0.00005997,-0.00001300,0.00009922,0.0001
 9397,-0.00031332,-0.00018943,-0.00009918,-0.00014737,0.00003439,0.0004
 7644,0.00069194,0.00088126,-0.00002866,0.00007801,0.00002624,0.0041275
 6,0.00165646,-0.00204071,0.01420781,-0.00794168,0.02804804,-0.00655260
 ,-0.00175378,-0.00228989,0.04673796,-0.05496153,0.10640075,-0.00022588
 ,0.00028962,0.00027031,0.00002012,-0.00000906,0.00000114,-0.00007836,0
 .00007983,-0.00019816,-0.00001081,0.00000507,-0.00001015,0.00000365,-0
 .00000450,-0.00004484,0.00001366,-0.00000988,0.00001329,0.00000248,0.0
 0000865,0.00000341,-0.00003172,0.00001786,-0.00002621,0.00003524,-0.00
 001128,0.00001717,0.00003290,-0.00009065,-0.00000987,0.00007413,0.0000
 2029,0.00000083,-0.00003115,0.00000678,-0.00007202,-0.05852910,0.06256
 190,0.00032758,-0.00033828,-0.00010408,0.00033735,-0.00020113,-0.00033
 037,0.00034766,-0.00022962,0.00013636,0.00002695,0.00000303,-0.0001083
 6,-0.00012173,-0.00000061,0.00029410,-0.00001099,-0.00001112,0.0000112
 9,0.00001919,0.00007188,0.00003107,-0.00004428,0.00003155,0.00001241,0
 .00167673,-0.00071081,0.00237861,-0.00932149,0.00511973,0.00546506,0.0
 0485124,-0.00278901,-0.00549444,-0.12309389,0.12908811,-0.44332300,-0.
 00028234,0.00035294,-0.00062494,-0.00004655,0.00002071,-0.00007268,-0.
 00003722,0.00010058,-0.00008287,0.00000486,-0.00000792,0.00001829,-0.0
 0000224,0.00001211,0.00002175,-0.00001105,-0.00000096,0.00000710,0.000
 01024,-0.00000313,-0.00000150,0.00001566,-0.00000226,0.00001279,0.0000
 1219,-0.00001984,0.00001705,0.00000523,0.00000194,0.00001522,-0.000005
 00,-0.00000317,0.00001040,0.00001481,-0.00001274,0.00001513,0.12532709
 ,-0.13047197,0.44169562\\-0.00000042,-0.00000249,0.00000136,-0.0000027
 0,0.00000498,-0.00000735,0.00000676,-0.00000783,0.00000241,0.00000239,
 0.00000172,-0.00000264,-0.00000710,0.00000126,0.00000057,0.00000114,0.
 00000041,-0.00000045,0.00000198,0.00000258,0.00000139,-0.00000152,-0.0
 0000039,-0.00000092,-0.00000014,-0.00000316,0.00000455,-0.00000109,0.0
 0000094,-0.00000165,-0.00000041,-0.00000014,0.00000067,0.00000022,-0.0
 0000042,0.00000068,-0.00000013,0.00000058,0.00000009,0.00000035,-0.000
 00056,0.00000013,-0.00000127,0.00000035,-0.00000058,-0.00000004,-0.000
 00072,0.00000017,-0.00000002,0.00000081,0.00000125,0.00000029,-0.00000
 105,0.00000004,0.00000030,0.00000053,-0.00000015,0.00000005,0.00000126
 ,-0.00000005,0.00000102,0.00000054,0.00000023,0.00000019,0.00000061,0.
 00000020,0.00000061,0.00000052,0.00000003,0.00000022,0.,-0.00000019,-0
 .00000067,-0.00000030,0.00000019\\\@
 The archive entry for this job was punched.


 WOMEN HOLD UP HALF THE SKY. -- MAO TSE TUNG
 Job cpu time:       1 days 11 hours 52 minutes 48.1 seconds.
 Elapsed time:       0 days  1 hours 47 minutes 38.9 seconds.
 File lengths (MBytes):  RWF=   1020 Int=      0 D2E=      0 Chk=     65 Scr=      1
 Normal termination of Gaussian 16 at Wed Mar  5 08:50:38 2025.
