 Entering Gaussian System, Link 0=g16
 Initial command:
 /usr/local/gaussian16c01/g16/l1.exe "/scr/dhuang/Gau-61479.inp" -scrdir="/scr/dhuang/"
 Entering Link 1 = /usr/local/gaussian16c01/g16/l1.exe PID=     61481.
  
 Copyright (c) 1988-2019, Gaussian, Inc.  All Rights Reserved.
  
 This is part of the Gaussian(R) 16 program.  It is based on
 the Gaussian(R) 09 system (copyright 2009, Gaussian, Inc.),
 the Gaussian(R) 03 system (copyright 2003, Gaussian, Inc.),
 the Gaussian(R) 98 system (copyright 1998, Gaussian, Inc.),
 the Gaussian(R) 94 system (copyright 1995, Gaussian, Inc.),
 the Gaussian 92(TM) system (copyright 1992, Gaussian, Inc.),
 the Gaussian 90(TM) system (copyright 1990, Gaussian, Inc.),
 the Gaussian 88(TM) system (copyright 1988, Gaussian, Inc.),
 the Gaussian 86(TM) system (copyright 1986, Carnegie Mellon
 University), and the Gaussian 82(TM) system (copyright 1983,
 Carnegie Mellon University). Gaussian is a federally registered
 trademark of Gaussian, Inc.
  
 This software contains proprietary and confidential information,
 including trade secrets, belonging to Gaussian, Inc.
  
 This software is provided under written license and may be
 used, copied, transmitted, or stored only in accord with that
 written license.
  
 The following legend is applicable only to US Government
 contracts under FAR:
  
                    RESTRICTED RIGHTS LEGEND
  
 Use, reproduction and disclosure by the US Government is
 subject to restrictions as set forth in subparagraphs (a)
 and (c) of the Commercial Computer Software - Restricted
 Rights clause in FAR 52.227-19.
  
 Gaussian, Inc.
 340 Quinnipiac St., Bldg. 40, Wallingford CT 06492
  
  
 ---------------------------------------------------------------
 Warning -- This program may not be used in any manner that
 competes with the business of Gaussian, Inc. or will provide
 assistance to any competitor of Gaussian, Inc.  The licensee
 of this program is prohibited from giving any competitor of
 Gaussian, Inc. access to this program.  By using this program,
 the user acknowledges that Gaussian, Inc. is engaged in the
 business of creating and licensing software in the field of
 computational chemistry and represents and warrants to the
 licensee that it is not a competitor of Gaussian, Inc. and that
 it will not use this program in any manner prohibited above.
 ---------------------------------------------------------------
  

 Cite this work as:
 Gaussian 16, Revision C.01,
 M. J. Frisch, G. W. Trucks, H. B. Schlegel, G. E. Scuseria, 
 M. A. Robb, J. R. Cheeseman, G. Scalmani, V. Barone, 
 G. A. Petersson, H. Nakatsuji, X. Li, M. Caricato, A. V. Marenich, 
 J. Bloino, B. G. Janesko, R. Gomperts, B. Mennucci, H. P. Hratchian, 
 J. V. Ortiz, A. F. Izmaylov, J. L. Sonnenberg, D. Williams-Young, 
 F. Ding, F. Lipparini, F. Egidi, J. Goings, B. Peng, A. Petrone, 
 T. Henderson, D. Ranasinghe, V. G. Zakrzewski, J. Gao, N. Rega, 
 G. Zheng, W. Liang, M. Hada, M. Ehara, K. Toyota, R. Fukuda, 
 J. Hasegawa, M. Ishida, T. Nakajima, Y. Honda, O. Kitao, H. Nakai, 
 T. Vreven, K. Throssell, J. A. Montgomery, Jr., J. E. Peralta, 
 F. Ogliaro, M. J. Bearpark, J. J. Heyd, E. N. Brothers, K. N. Kudin, 
 V. N. Staroverov, T. A. Keith, R. Kobayashi, J. Normand, 
 K. Raghavachari, A. P. Rendell, J. C. Burant, S. S. Iyengar, 
 J. Tomasi, M. Cossi, J. M. Millam, M. Klene, C. Adamo, R. Cammi, 
 J. W. Ochterski, R. L. Martin, K. Morokuma, O. Farkas, 
 J. B. Foresman, and D. J. Fox, Gaussian, Inc., Wallingford CT, 2019.
 
 ******************************************
 Gaussian 16:  ES64L-G16RevC.01  3-Jul-2019
                 4-Mar-2025 
 ******************************************
 %nprocshared=20
 Will use up to   20 processors via shared memory.
 %mem=10000MW
 %chk=12.chk
 ------------------------------------
 # opt freq m062x/aug-cc-pvtz pop=nbo
 ------------------------------------
 1/18=20,19=15,26=3,38=1/1,3;
 2/9=110,12=2,17=6,18=5,40=1/2;
 3/5=16,6=1,7=10,11=2,25=1,30=1,71=1,74=-55/1,2,3;
 4//1;
 5/5=2,38=5/2;
 6/7=2,8=2,9=2,10=2,28=1,40=1/1,7;
 7//1,2,3,16;
 1/18=20,19=15,26=3/3(2);
 2/9=110/2;
 99//99;
 2/9=110/2;
 3/5=16,6=1,7=10,11=2,25=1,30=1,71=1,74=-55/1,2,3;
 4/5=5,16=3,69=1/1;
 5/5=2,38=5/2;
 7//1,2,3,16;
 1/18=20,19=15,26=3/3(-5);
 2/9=110/2;
 6/7=2,8=2,9=2,10=2,19=2,28=1,40=1/1,7;
 99/9=1/99;
 --
 12
 --
 Symbolic Z-matrix:
 Charge =  0 Multiplicity = 1
 C                     0.58405  -2.61164   0.29985 
 N                    -0.2712   -2.11343   1.39707 
 C                    -1.38761  -1.52181   1.22063 
 C                    -1.82643  -1.24149   2.46638 
 C                    -3.07814  -0.55382   2.93828 
 C                    -0.89898  -1.70735   3.31904 
 C                     0.09142  -2.26376   2.60722 
 C                     1.31392  -2.89644   3.21209 
 C                    -2.0349   -1.2174    0.0565 
 O                    -1.58294  -1.49911  -1.03792 
 O                    -3.2314   -0.5763    0.0644 
 H                     1.5155   -3.09737   0.66208 
 H                     0.05365  -3.38985  -0.29472 
 H                     0.91901  -1.77438  -0.35385 
 H                    -3.12281   0.49325   2.56221 
 H                    -3.98499  -1.11701   2.62184 
 H                    -3.11383  -0.49351   4.04926 
 H                    -0.94136  -1.64464   4.41398 
 H                     1.29342  -2.84506   4.32378 
 H                     1.37809  -3.97129   2.92867 
 H                     2.23466  -2.37175   2.87061 
 H                    -3.55038  -0.43816  -0.83654 
 

 GradGradGradGradGradGradGradGradGradGradGradGradGradGradGradGradGradGrad
 Berny optimization.
 Initialization pass.
                           ----------------------------
                           !    Initial Parameters    !
                           ! (Angstroms and Degrees)  !
 --------------------------                            --------------------------
 ! Name  Definition              Value          Derivative Info.                !
 --------------------------------------------------------------------------------
 ! R1    R(1,2)                  1.4777         estimate D2E/DX2                !
 ! R2    R(1,12)                 1.1112         estimate D2E/DX2                !
 ! R3    R(1,13)                 1.1138         estimate D2E/DX2                !
 ! R4    R(1,14)                 1.1138         estimate D2E/DX2                !
 ! R5    R(2,3)                  1.2757         estimate D2E/DX2                !
 ! R6    R(2,7)                  1.2722         estimate D2E/DX2                !
 ! R7    R(3,4)                  1.3502         estimate D2E/DX2                !
 ! R8    R(3,9)                  1.3663         estimate D2E/DX2                !
 ! R9    R(4,5)                  1.5041         estimate D2E/DX2                !
 ! R10   R(4,6)                  1.3432         estimate D2E/DX2                !
 ! R11   R(5,15)                 1.1135         estimate D2E/DX2                !
 ! R12   R(5,16)                 1.1134         estimate D2E/DX2                !
 ! R13   R(5,17)                 1.1132         estimate D2E/DX2                !
 ! R14   R(6,7)                  1.3406         estimate D2E/DX2                !
 ! R15   R(6,18)                 1.0976         estimate D2E/DX2                !
 ! R16   R(7,8)                  1.5036         estimate D2E/DX2                !
 ! R17   R(8,19)                 1.1131         estimate D2E/DX2                !
 ! R18   R(8,20)                 1.1134         estimate D2E/DX2                !
 ! R19   R(8,21)                 1.1134         estimate D2E/DX2                !
 ! R20   R(9,10)                 1.2171         estimate D2E/DX2                !
 ! R21   R(9,11)                 1.3575         estimate D2E/DX2                !
 ! R22   R(11,22)                0.9657         estimate D2E/DX2                !
 ! A1    A(2,1,12)             112.9852         estimate D2E/DX2                !
 ! A2    A(2,1,13)             110.8759         estimate D2E/DX2                !
 ! A3    A(2,1,14)             110.8799         estimate D2E/DX2                !
 ! A4    A(12,1,13)            105.5329         estimate D2E/DX2                !
 ! A5    A(12,1,14)            105.535          estimate D2E/DX2                !
 ! A6    A(13,1,14)            110.802          estimate D2E/DX2                !
 ! A7    A(1,2,3)              124.0665         estimate D2E/DX2                !
 ! A8    A(1,2,7)              120.098          estimate D2E/DX2                !
 ! A9    A(3,2,7)              115.8355         estimate D2E/DX2                !
 ! A10   A(2,3,4)              104.6601         estimate D2E/DX2                !
 ! A11   A(2,3,9)              129.4745         estimate D2E/DX2                !
 ! A12   A(4,3,9)              125.8654         estimate D2E/DX2                !
 ! A13   A(3,4,5)              130.9082         estimate D2E/DX2                !
 ! A14   A(3,4,6)              106.8147         estimate D2E/DX2                !
 ! A15   A(5,4,6)              122.2771         estimate D2E/DX2                !
 ! A16   A(4,5,15)             110.9378         estimate D2E/DX2                !
 ! A17   A(4,5,16)             110.9395         estimate D2E/DX2                !
 ! A18   A(4,5,17)             111.381          estimate D2E/DX2                !
 ! A19   A(15,5,16)            110.3039         estimate D2E/DX2                !
 ! A20   A(15,5,17)            106.5493         estimate D2E/DX2                !
 ! A21   A(16,5,17)            106.5549         estimate D2E/DX2                !
 ! A22   A(4,6,7)              108.4815         estimate D2E/DX2                !
 ! A23   A(4,6,18)             125.9304         estimate D2E/DX2                !
 ! A24   A(7,6,18)             125.5881         estimate D2E/DX2                !
 ! A25   A(2,7,6)              104.2082         estimate D2E/DX2                !
 ! A26   A(2,7,8)              131.6166         estimate D2E/DX2                !
 ! A27   A(6,7,8)              124.1752         estimate D2E/DX2                !
 ! A28   A(7,8,19)             111.555          estimate D2E/DX2                !
 ! A29   A(7,8,20)             110.528          estimate D2E/DX2                !
 ! A30   A(7,8,21)             110.5302         estimate D2E/DX2                !
 ! A31   A(19,8,20)            107.4488         estimate D2E/DX2                !
 ! A32   A(19,8,21)            107.4458         estimate D2E/DX2                !
 ! A33   A(20,8,21)            109.2193         estimate D2E/DX2                !
 ! A34   A(3,9,10)             122.5905         estimate D2E/DX2                !
 ! A35   A(3,9,11)             121.1872         estimate D2E/DX2                !
 ! A36   A(10,9,11)            116.2223         estimate D2E/DX2                !
 ! A37   A(9,11,22)            110.6884         estimate D2E/DX2                !
 ! D1    D(12,1,2,3)           179.9987         estimate D2E/DX2                !
 ! D2    D(12,1,2,7)            -0.013          estimate D2E/DX2                !
 ! D3    D(13,1,2,3)           -61.7661         estimate D2E/DX2                !
 ! D4    D(13,1,2,7)           118.2223         estimate D2E/DX2                !
 ! D5    D(14,1,2,3)            61.758          estimate D2E/DX2                !
 ! D6    D(14,1,2,7)          -118.2537         estimate D2E/DX2                !
 ! D7    D(1,2,3,4)            179.9911         estimate D2E/DX2                !
 ! D8    D(1,2,3,9)             -0.0077         estimate D2E/DX2                !
 ! D9    D(7,2,3,4)              0.0023         estimate D2E/DX2                !
 ! D10   D(7,2,3,9)           -179.9965         estimate D2E/DX2                !
 ! D11   D(1,2,7,6)           -179.9917         estimate D2E/DX2                !
 ! D12   D(1,2,7,8)              0.0206         estimate D2E/DX2                !
 ! D13   D(3,2,7,6)             -0.0025         estimate D2E/DX2                !
 ! D14   D(3,2,7,8)           -179.9901         estimate D2E/DX2                !
 ! D15   D(2,3,4,5)            179.9993         estimate D2E/DX2                !
 ! D16   D(2,3,4,6)             -0.0011         estimate D2E/DX2                !
 ! D17   D(9,3,4,5)             -0.0018         estimate D2E/DX2                !
 ! D18   D(9,3,4,6)            179.9978         estimate D2E/DX2                !
 ! D19   D(2,3,9,10)            -0.0088         estimate D2E/DX2                !
 ! D20   D(2,3,9,11)           179.9947         estimate D2E/DX2                !
 ! D21   D(4,3,9,10)           179.9926         estimate D2E/DX2                !
 ! D22   D(4,3,9,11)            -0.0039         estimate D2E/DX2                !
 ! D23   D(3,4,5,15)           -61.4487         estimate D2E/DX2                !
 ! D24   D(3,4,5,16)            61.5222         estimate D2E/DX2                !
 ! D25   D(3,4,5,17)          -179.9592         estimate D2E/DX2                !
 ! D26   D(6,4,5,15)           118.5517         estimate D2E/DX2                !
 ! D27   D(6,4,5,16)          -118.4774         estimate D2E/DX2                !
 ! D28   D(6,4,5,17)             0.0412         estimate D2E/DX2                !
 ! D29   D(3,4,6,7)             -0.0003         estimate D2E/DX2                !
 ! D30   D(3,4,6,18)           179.9871         estimate D2E/DX2                !
 ! D31   D(5,4,6,7)            179.9993         estimate D2E/DX2                !
 ! D32   D(5,4,6,18)            -0.0133         estimate D2E/DX2                !
 ! D33   D(4,6,7,2)              0.0016         estimate D2E/DX2                !
 ! D34   D(4,6,7,8)            179.9904         estimate D2E/DX2                !
 ! D35   D(18,6,7,2)          -179.9859         estimate D2E/DX2                !
 ! D36   D(18,6,7,8)             0.003          estimate D2E/DX2                !
 ! D37   D(2,7,8,19)           179.9936         estimate D2E/DX2                !
 ! D38   D(2,7,8,20)           -60.523          estimate D2E/DX2                !
 ! D39   D(2,7,8,21)            60.5124         estimate D2E/DX2                !
 ! D40   D(6,7,8,19)             0.008          estimate D2E/DX2                !
 ! D41   D(6,7,8,20)           119.4915         estimate D2E/DX2                !
 ! D42   D(6,7,8,21)          -119.4731         estimate D2E/DX2                !
 ! D43   D(3,9,11,22)          180.0            estimate D2E/DX2                !
 ! D44   D(10,9,11,22)           0.0033         estimate D2E/DX2                !
 --------------------------------------------------------------------------------
 Trust Radius=3.00D-01 FncErr=1.00D-07 GrdErr=1.00D-06 EigMax=2.50D+02 EigMin=1.00D-04
 Number of steps in this run=    113 maximum allowed number of steps=    132.
 GradGradGradGradGradGradGradGradGradGradGradGradGradGradGradGradGradGrad

                          Input orientation:                          
 ---------------------------------------------------------------------
 Center     Atomic      Atomic             Coordinates (Angstroms)
 Number     Number       Type             X           Y           Z
 ---------------------------------------------------------------------
      1          6           0        0.584050   -2.611644    0.299853
      2          7           0       -0.271204   -2.113429    1.397069
      3          6           0       -1.387611   -1.521813    1.220630
      4          6           0       -1.826426   -1.241491    2.466385
      5          6           0       -3.078140   -0.553825    2.938280
      6          6           0       -0.898979   -1.707346    3.319039
      7          6           0        0.091422   -2.263761    2.607218
      8          6           0        1.313923   -2.896441    3.212091
      9          6           0       -2.034900   -1.217400    0.056500
     10          8           0       -1.582936   -1.499115   -1.037917
     11          8           0       -3.231400   -0.576300    0.064400
     12          1           0        1.515504   -3.097372    0.662078
     13          1           0        0.053648   -3.389854   -0.294724
     14          1           0        0.919008   -1.774379   -0.353855
     15          1           0       -3.122808    0.493247    2.562211
     16          1           0       -3.984990   -1.117012    2.621842
     17          1           0       -3.113832   -0.493509    4.049263
     18          1           0       -0.941363   -1.644640    4.413984
     19          1           0        1.293417   -2.845059    4.323782
     20          1           0        1.378093   -3.971291    2.928673
     21          1           0        2.234665   -2.371754    2.870608
     22          1           0       -3.550384   -0.438164   -0.836539
 ---------------------------------------------------------------------
                    Distance matrix (angstroms):
                    1          2          3          4          5
     1  C    0.000000
     2  N    1.477687   0.000000
     3  C    2.433722   1.275737   0.000000
     4  C    3.518745   2.079044   1.350201   0.000000
     5  C    4.960599   3.561823   2.597155   1.504114   0.000000
     6  C    3.483190   2.062274   2.162523   1.343205   2.494861
     7  C    2.384877   1.272226   2.158854   2.177845   3.616574
     8  C    3.015784   2.533780   3.626818   3.627221   4.985283
     9  C    2.976917   2.389690   1.366327   2.419005   3.135815
    10  O    2.779061   2.833228   2.267091   3.522185   4.351936
    11  O    4.330787   3.591871   2.372851   2.861112   2.878051
    12  H    1.111191   2.168105   3.349990   4.227092   5.722961
    13  H    1.113759   2.144051   2.804122   3.971632   5.320101
    14  H    1.113797   2.144130   2.804154   3.971791   5.320253
    15  H    5.338483   4.035339   2.978459   2.167743   1.113455
    16  H    5.338697   4.035483   2.978866   2.167732   1.113414
    17  H    5.676169   4.211746   3.469642   2.173108   1.113192
    18  H    4.493112   3.125804   3.226722   2.176927   2.816629
    19  H    4.092638   3.398377   4.309112   3.969229   5.126391
    20  H    3.064285   2.918500   4.070193   4.234910   5.615798
    21  H    3.064451   2.918463   4.070099   4.234778   5.615633
    22  H    4.807176   4.306802   3.175504   3.811387   3.806002
                    6          7          8          9         10
     6  C    0.000000
     7  C    1.340590   0.000000
     8  C    2.514423   1.503551   0.000000
     9  C    3.489201   3.481707   4.898117   0.000000
    10  O    4.415227   4.083525   5.329811   1.217121   0.000000
    11  O    4.160785   4.511607   5.995914   1.357455   2.187264
    12  H    3.849849   2.550781   2.565848   4.062805   3.878754
    13  H    4.098490   3.113002   3.758923   3.033965   2.608762
    14  H    4.098746   3.113253   3.759116   3.033840   2.608339
    15  H    3.218822   4.234902   5.621114   3.223111   4.393363
    16  H    3.218392   4.234665   5.620787   3.223959   4.394281
    17  H    2.629107   3.935345   5.106854   4.198841   5.406874
    18  H    1.097558   2.171258   2.845676   4.512874   5.491450
    19  H    2.666552   2.174693   1.113067   5.651254   6.231596
    20  H    3.234639   2.162063   1.113439   5.242311   5.532919
    21  H    3.234540   2.162065   1.113405   5.242225   5.532824
    22  H    5.090148   5.334325   6.789405   1.923907   2.244331
                   11         12         13         14         15
    11  O    0.000000
    12  H    5.407968   0.000000
    13  H    4.340115   1.771451   0.000000
    14  H    4.340071   1.771507   1.833604   0.000000
    15  H    2.719335   6.165791   5.773251   5.475568   0.000000
    16  H    2.720437   6.165868   5.475652   5.773742   1.827526
    17  H    3.987456   6.299514   6.106715   6.106707   1.784683
    18  H    5.030358   4.714173   5.119351   5.119580   3.571880
    19  H    6.615404   3.677099   4.812944   4.813193   5.809515
    20  H    6.401364   2.433120   3.533061   3.976452   6.350159
    21  H    6.401275   2.433376   3.976518   3.533408   6.083244
    22  H    0.965672   5.914428   4.689892   4.689768   3.549908
                   16         17         18         19         20
    16  H    0.000000
    17  H    1.784714   0.000000
    18  H    3.571251   2.485507   0.000000
    19  H    5.808987   5.002899   2.538383   0.000000
    20  H    6.083069   5.790344   3.605459   1.794964   0.000000
    21  H    6.349832   5.789944   3.605254   1.794903   1.815380
    22  H    3.551072   4.905578   5.985864   7.475592   7.137906
                   21         22
    21  H    0.000000
    22  H    7.137822   0.000000
 Stoichiometry    C8H11NO2
 Framework group  C1[X(C8H11NO2)]
 Deg. of freedom    60
 Full point group                 C1      NOp   1
 Largest Abelian subgroup         C1      NOp   1
 Largest concise Abelian subgroup C1      NOp   1
                         Standard orientation:                         
 ---------------------------------------------------------------------
 Center     Atomic      Atomic             Coordinates (Angstroms)
 Number     Number       Type             X           Y           Z
 ---------------------------------------------------------------------
      1          6           0        1.049446   -2.020072    0.000151
      2          7           0        0.771931   -0.568678   -0.000014
      3          6           0       -0.400275   -0.065254   -0.000018
      4          6           0       -0.198797    1.269830    0.000012
      5          6           0       -1.175841    2.413397    0.000010
      6          6           0        1.130565    1.462173    0.000056
      7          6           0        1.733218    0.264680    0.000061
      8          6           0        3.224040    0.069448   -0.000103
      9          6           0       -1.614596   -0.691572   -0.000023
     10          8           0       -1.727168   -1.903476   -0.000183
     11          8           0       -2.771655    0.018286    0.000080
     12          1           0        2.135702   -2.254147    0.000102
     13          1           0        0.640486   -2.502236    0.917063
     14          1           0        0.640280   -2.502570   -0.916541
     15          1           0       -1.812174    2.393071   -0.913472
     16          1           0       -1.811319    2.393825    0.914053
     17          1           0       -0.651361    3.395291   -0.000697
     18          1           0        1.640713    2.433966   -0.000111
     19          1           0        3.763934    1.042809   -0.000082
     20          1           0        3.544630   -0.490180    0.907523
     21          1           0        3.544485   -0.489988   -0.907857
     22          1           0       -3.534868   -0.573347    0.000060
 ---------------------------------------------------------------------
 Rotational constants (GHZ):           1.7664753           1.0287430           0.6586652
 Standard basis: Aug-CC-pVTZ (5D, 7F)
 There are   880 symmetry adapted cartesian basis functions of A   symmetry.
 There are   759 symmetry adapted basis functions of A   symmetry.
   759 basis functions,  1089 primitive gaussians,   880 cartesian basis functions
    41 alpha electrons       41 beta electrons
       nuclear repulsion energy       638.9697521124 Hartrees.
 NAtoms=   22 NActive=   22 NUniq=   22 SFac= 1.00D+00 NAtFMM=   60 NAOKFM=F Big=F
 Integral buffers will be    131072 words long.
 Raffenetti 2 integral format.
 Two-electron integral symmetry is turned on.
 One-electron integrals computed using PRISM.
 NBasis=   759 RedAO= T EigKep=  1.47D-06  NBF=   759
 NBsUse=   756 1.00D-06 EigRej=  9.43D-07 NBFU=   756
 ExpMin= 2.53D-02 ExpMax= 1.53D+04 ExpMxC= 5.22D+02 IAcc=3 IRadAn=         5 AccDes= 0.00D+00
 Harris functional with IExCor= 1009 and IRadAn=       5 diagonalized for initial guess.
 HarFok:  IExCor= 1009 AccDes= 0.00D+00 IRadAn=         5 IDoV= 1 UseB2=F ITyADJ=14
 ICtDFT=  3500011 ScaDFX=  1.000000  1.000000  1.000000  1.000000
 FoFCou: FMM=F IPFlag=           0 FMFlag=      100000 FMFlg1=           0
         NFxFlg=           0 DoJE=T BraDBF=F KetDBF=T FulRan=T
         wScrn=  0.000000 ICntrl=       500 IOpCl=  0 I1Cent=   200000004 NGrid=           0
         NMat0=    1 NMatS0=      1 NMatT0=    0 NMatD0=    1 NMtDS0=    0 NMtDT0=    0
 Petite list used in FoFCou.
 Requested convergence on RMS density matrix=1.00D-08 within 128 cycles.
 Requested convergence on MAX density matrix=1.00D-06.
 Requested convergence on             energy=1.00D-06.
 No special actions if energy rises.
 SCF Done:  E(RM062X) =  -516.632090282     A.U. after   13 cycles
            NFock= 13  Conv=0.70D-08     -V/T= 2.0036

 **********************************************************************

            Population analysis using the SCF Density.

 **********************************************************************

 Orbital symmetries:
       Occupied  (A) (A) (A) (A) (A) (A) (A) (A) (A) (A) (A) (A)
                 (A) (A) (A) (A) (A) (A) (A) (A) (A) (A) (A) (A)
                 (A) (A) (A) (A) (A) (A) (A) (A) (A) (A) (A) (A)
                 (A) (A) (A) (A) (A)
       Virtual   (A) (A) (A) (A) (A) (A) (A) (A) (A) (A) (A) (A)
                 (A) (A) (A) (A) (A) (A) (A) (A) (A) (A) (A) (A)
                 (A) (A) (A) (A) (A) (A) (A) (A) (A) (A) (A) (A)
                 (A) (A) (A) (A) (A) (A) (A) (A) (A) (A) (A) (A)
                 (A) (A) (A) (A) (A) (A) (A) (A) (A) (A) (A) (A)
                 (A) (A) (A) (A) (A) (A) (A) (A) (A) (A) (A) (A)
                 (A) (A) (A) (A) (A) (A) (A) (A) (A) (A) (A) (A)
                 (A) (A) (A) (A) (A) (A) (A) (A) (A) (A) (A) (A)
                 (A) (A) (A) (A) (A) (A) (A) (A) (A) (A) (A) (A)
                 (A) (A) (A) (A) (A) (A) (A) (A) (A) (A) (A) (A)
                 (A) (A) (A) (A) (A) (A) (A) (A) (A) (A) (A) (A)
                 (A) (A) (A) (A) (A) (A) (A) (A) (A) (A) (A) (A)
                 (A) (A) (A) (A) (A) (A) (A) (A) (A) (A) (A) (A)
                 (A) (A) (A) (A) (A) (A) (A) (A) (A) (A) (A) (A)
                 (A) (A) (A) (A) (A) (A) (A) (A) (A) (A) (A) (A)
                 (A) (A) (A) (A) (A) (A) (A) (A) (A) (A) (A) (A)
                 (A) (A) (A) (A) (A) (A) (A) (A) (A) (A) (A) (A)
                 (A) (A) (A) (A) (A) (A) (A) (A) (A) (A) (A) (A)
                 (A) (A) (A) (A) (A) (A) (A) (A) (A) (A) (A) (A)
                 (A) (A) (A) (A) (A) (A) (A) (A) (A) (A) (A) (A)
                 (A) (A) (A) (A) (A) (A) (A) (A) (A) (A) (A) (A)
                 (A) (A) (A) (A) (A) (A) (A) (A) (A) (A) (A) (A)
                 (A) (A) (A) (A) (A) (A) (A) (A) (A) (A) (A) (A)
                 (A) (A) (A) (A) (A) (A) (A) (A) (A) (A) (A) (A)
                 (A) (A) (A) (A) (A) (A) (A) (A) (A) (A) (A) (A)
                 (A) (A) (A) (A) (A) (A) (A) (A) (A) (A) (A) (A)
                 (A) (A) (A) (A) (A) (A) (A) (A) (A) (A) (A) (A)
                 (A) (A) (A) (A) (A) (A) (A) (A) (A) (A) (A) (A)
                 (A) (A) (A) (A) (A) (A) (A) (A) (A) (A) (A) (A)
                 (A) (A) (A) (A) (A) (A) (A) (A) (A) (A) (A) (A)
                 (A) (A) (A) (A) (A) (A) (A) (A) (A) (A) (A) (A)
                 (A) (A) (A) (A) (A) (A) (A) (A) (A) (A) (A) (A)
                 (A) (A) (A) (A) (A) (A) (A) (A) (A) (A) (A) (A)
                 (A) (A) (A) (A) (A) (A) (A) (A) (A) (A) (A) (A)
                 (A) (A) (A) (A) (A) (A) (A) (A) (A) (A) (A) (A)
                 (A) (A) (A) (A) (A) (A) (A) (A) (A) (A) (A) (A)
                 (A) (A) (A) (A) (A) (A) (A) (A) (A) (A) (A) (A)
                 (A) (A) (A) (A) (A) (A) (A) (A) (A) (A) (A) (A)
                 (A) (A) (A) (A) (A) (A) (A) (A) (A) (A) (A) (A)
                 (A) (A) (A) (A) (A) (A) (A) (A) (A) (A) (A) (A)
                 (A) (A) (A) (A) (A) (A) (A) (A) (A) (A) (A) (A)
                 (A) (A) (A) (A) (A) (A) (A) (A) (A) (A) (A) (A)
                 (A) (A) (A) (A) (A) (A) (A) (A) (A) (A) (A) (A)
                 (A) (A) (A) (A) (A) (A) (A) (A) (A) (A) (A) (A)
                 (A) (A) (A) (A) (A) (A) (A) (A) (A) (A) (A) (A)
                 (A) (A) (A) (A) (A) (A) (A) (A) (A) (A) (A) (A)
                 (A) (A) (A) (A) (A) (A) (A) (A) (A) (A) (A) (A)
                 (A) (A) (A) (A) (A) (A) (A) (A) (A) (A) (A) (A)
                 (A) (A) (A) (A) (A) (A) (A) (A) (A) (A) (A) (A)
                 (A) (A) (A) (A) (A) (A) (A) (A) (A) (A) (A) (A)
                 (A) (A) (A) (A) (A) (A) (A) (A) (A) (A) (A) (A)
                 (A) (A) (A) (A) (A) (A) (A) (A) (A) (A) (A) (A)
                 (A) (A) (A) (A) (A) (A) (A) (A) (A) (A) (A) (A)
                 (A) (A) (A) (A) (A) (A) (A) (A) (A) (A) (A) (A)
                 (A) (A) (A) (A) (A) (A) (A) (A) (A) (A) (A) (A)
                 (A) (A) (A) (A) (A) (A) (A) (A) (A) (A) (A) (A)
                 (A) (A) (A) (A) (A) (A) (A) (A) (A) (A) (A) (A)
                 (A) (A) (A) (A) (A) (A) (A) (A) (A) (A) (A) (A)
                 (A) (A) (A) (A) (A) (A) (A) (A) (A) (A) (A) (A)
                 (A) (A) (A) (A) (A) (A) (A)
 The electronic state is 1-A.
 Alpha  occ. eigenvalues --  -19.65624 -19.59043 -14.80924 -10.66280 -10.58275
 Alpha  occ. eigenvalues --  -10.56665 -10.56070 -10.54740 -10.52950 -10.52632
 Alpha  occ. eigenvalues --  -10.50501  -1.22501  -1.16810  -1.11660  -0.93014
 Alpha  occ. eigenvalues --   -0.90299  -0.82670  -0.81609  -0.75553  -0.72931
 Alpha  occ. eigenvalues --   -0.67001  -0.62510  -0.60703  -0.58272  -0.56250
 Alpha  occ. eigenvalues --   -0.53404  -0.52074  -0.49350  -0.49083  -0.48323
 Alpha  occ. eigenvalues --   -0.47592  -0.47396  -0.46146  -0.45129  -0.44523
 Alpha  occ. eigenvalues --   -0.42719  -0.39794  -0.38556  -0.34134  -0.30265
 Alpha  occ. eigenvalues --   -0.27742
 Alpha virt. eigenvalues --   -0.01061   0.00114   0.00492   0.00936   0.01060
 Alpha virt. eigenvalues --    0.01643   0.02246   0.02725   0.02789   0.03372
 Alpha virt. eigenvalues --    0.04007   0.04615   0.05673   0.06366   0.06807
 Alpha virt. eigenvalues --    0.07066   0.07443   0.07490   0.07724   0.08254
 Alpha virt. eigenvalues --    0.08438   0.08683   0.09319   0.10027   0.10169
 Alpha virt. eigenvalues --    0.10266   0.10304   0.11390   0.11631   0.11751
 Alpha virt. eigenvalues --    0.11784   0.12226   0.12464   0.13101   0.13295
 Alpha virt. eigenvalues --    0.13413   0.13512   0.14277   0.14852   0.15981
 Alpha virt. eigenvalues --    0.16087   0.16715   0.17422   0.18408   0.18577
 Alpha virt. eigenvalues --    0.18708   0.19090   0.19209   0.19824   0.20156
 Alpha virt. eigenvalues --    0.20678   0.21218   0.21608   0.21871   0.22237
 Alpha virt. eigenvalues --    0.22901   0.23032   0.23510   0.24004   0.24494
 Alpha virt. eigenvalues --    0.25157   0.25160   0.25945   0.26259   0.26530
 Alpha virt. eigenvalues --    0.26566   0.27770   0.27939   0.28318   0.28748
 Alpha virt. eigenvalues --    0.29346   0.29551   0.29912   0.30867   0.30983
 Alpha virt. eigenvalues --    0.30995   0.31541   0.31581   0.32208   0.32869
 Alpha virt. eigenvalues --    0.32964   0.33819   0.33839   0.34228   0.34494
 Alpha virt. eigenvalues --    0.34927   0.35141   0.35377   0.35726   0.36277
 Alpha virt. eigenvalues --    0.36367   0.36951   0.37361   0.37497   0.38316
 Alpha virt. eigenvalues --    0.38441   0.38478   0.39113   0.39202   0.39569
 Alpha virt. eigenvalues --    0.40457   0.41019   0.41324   0.42008   0.42284
 Alpha virt. eigenvalues --    0.42553   0.42663   0.43468   0.43484   0.43552
 Alpha virt. eigenvalues --    0.44002   0.44241   0.45434   0.45635   0.45911
 Alpha virt. eigenvalues --    0.46706   0.47083   0.47181   0.47556   0.47652
 Alpha virt. eigenvalues --    0.48986   0.49280   0.49875   0.50354   0.50670
 Alpha virt. eigenvalues --    0.51060   0.51177   0.52747   0.54103   0.54295
 Alpha virt. eigenvalues --    0.54518   0.55464   0.55918   0.56541   0.57274
 Alpha virt. eigenvalues --    0.57393   0.57611   0.58140   0.58297   0.59700
 Alpha virt. eigenvalues --    0.59885   0.60639   0.61003   0.61075   0.61883
 Alpha virt. eigenvalues --    0.61938   0.63723   0.64593   0.65228   0.65963
 Alpha virt. eigenvalues --    0.66799   0.67016   0.68417   0.68596   0.69730
 Alpha virt. eigenvalues --    0.69991   0.70076   0.70786   0.70875   0.71833
 Alpha virt. eigenvalues --    0.72423   0.72572   0.73365   0.73901   0.74181
 Alpha virt. eigenvalues --    0.74403   0.75334   0.76379   0.76476   0.76931
 Alpha virt. eigenvalues --    0.77224   0.77997   0.78454   0.78976   0.79694
 Alpha virt. eigenvalues --    0.79969   0.80984   0.81303   0.81408   0.82026
 Alpha virt. eigenvalues --    0.82725   0.83363   0.83429   0.84285   0.84467
 Alpha virt. eigenvalues --    0.84518   0.84836   0.85423   0.86021   0.86387
 Alpha virt. eigenvalues --    0.86787   0.87607   0.88385   0.89228   0.89312
 Alpha virt. eigenvalues --    0.89541   0.90276   0.90527   0.91357   0.91616
 Alpha virt. eigenvalues --    0.91957   0.92141   0.92323   0.93319   0.94146
 Alpha virt. eigenvalues --    0.94287   0.95606   0.95704   0.96549   0.96742
 Alpha virt. eigenvalues --    0.97739   0.97941   0.98724   0.99427   0.99966
 Alpha virt. eigenvalues --    1.00120   1.01020   1.01787   1.01927   1.02527
 Alpha virt. eigenvalues --    1.02904   1.04329   1.04670   1.05108   1.05565
 Alpha virt. eigenvalues --    1.05936   1.06250   1.07527   1.07768   1.07927
 Alpha virt. eigenvalues --    1.08700   1.09214   1.10153   1.10802   1.11001
 Alpha virt. eigenvalues --    1.12088   1.12167   1.12673   1.13055   1.14136
 Alpha virt. eigenvalues --    1.15734   1.15881   1.15955   1.16902   1.17403
 Alpha virt. eigenvalues --    1.17446   1.17867   1.18387   1.20671   1.20749
 Alpha virt. eigenvalues --    1.22059   1.22522   1.23728   1.23952   1.24229
 Alpha virt. eigenvalues --    1.25406   1.26057   1.26570   1.27582   1.27820
 Alpha virt. eigenvalues --    1.28882   1.29845   1.30177   1.30651   1.31586
 Alpha virt. eigenvalues --    1.31614   1.32653   1.33124   1.33569   1.34982
 Alpha virt. eigenvalues --    1.35146   1.35431   1.36230   1.37765   1.38597
 Alpha virt. eigenvalues --    1.38887   1.38942   1.39716   1.40440   1.41273
 Alpha virt. eigenvalues --    1.41576   1.42154   1.43050   1.43834   1.44462
 Alpha virt. eigenvalues --    1.45544   1.45619   1.46209   1.46947   1.47851
 Alpha virt. eigenvalues --    1.48456   1.48657   1.49344   1.49506   1.50040
 Alpha virt. eigenvalues --    1.50718   1.51911   1.51937   1.53826   1.54166
 Alpha virt. eigenvalues --    1.54606   1.54821   1.55159   1.55504   1.56397
 Alpha virt. eigenvalues --    1.56542   1.57028   1.58700   1.59457   1.60115
 Alpha virt. eigenvalues --    1.61014   1.61571   1.61813   1.62953   1.63404
 Alpha virt. eigenvalues --    1.63770   1.64073   1.65171   1.66340   1.67300
 Alpha virt. eigenvalues --    1.67345   1.68641   1.69037   1.69508   1.71094
 Alpha virt. eigenvalues --    1.72192   1.73211   1.73241   1.73913   1.74914
 Alpha virt. eigenvalues --    1.76819   1.76980   1.78441   1.79403   1.79662
 Alpha virt. eigenvalues --    1.80675   1.81532   1.81628   1.82427   1.83513
 Alpha virt. eigenvalues --    1.83759   1.86020   1.86148   1.87297   1.87455
 Alpha virt. eigenvalues --    1.88620   1.88657   1.89933   1.90623   1.91823
 Alpha virt. eigenvalues --    1.92030   1.92768   1.94772   1.96264   1.96510
 Alpha virt. eigenvalues --    1.97323   1.98314   1.98422   2.00653   2.00866
 Alpha virt. eigenvalues --    2.01095   2.01449   2.02064   2.03333   2.04038
 Alpha virt. eigenvalues --    2.05119   2.05735   2.06056   2.06115   2.06898
 Alpha virt. eigenvalues --    2.07142   2.09917   2.10765   2.11361   2.13048
 Alpha virt. eigenvalues --    2.14516   2.14744   2.16300   2.17039   2.19331
 Alpha virt. eigenvalues --    2.19355   2.19574   2.19918   2.21918   2.22090
 Alpha virt. eigenvalues --    2.24827   2.25707   2.27495   2.27709   2.28827
 Alpha virt. eigenvalues --    2.29813   2.30740   2.32699   2.33713   2.34681
 Alpha virt. eigenvalues --    2.37600   2.41522   2.41678   2.41922   2.43846
 Alpha virt. eigenvalues --    2.44364   2.45161   2.46809   2.46852   2.47957
 Alpha virt. eigenvalues --    2.49787   2.51118   2.51243   2.54632   2.57133
 Alpha virt. eigenvalues --    2.59190   2.60800   2.62385   2.63101   2.64422
 Alpha virt. eigenvalues --    2.64613   2.65652   2.69381   2.70064   2.73300
 Alpha virt. eigenvalues --    2.73962   2.76866   2.77731   2.80121   2.82370
 Alpha virt. eigenvalues --    2.83270   2.85208   2.88427   2.89896   2.92828
 Alpha virt. eigenvalues --    2.95797   2.97010   3.01584   3.04125   3.05739
 Alpha virt. eigenvalues --    3.06264   3.07830   3.08707   3.08946   3.09529
 Alpha virt. eigenvalues --    3.11237   3.13195   3.15721   3.16611   3.17064
 Alpha virt. eigenvalues --    3.17092   3.19100   3.20260   3.20926   3.22049
 Alpha virt. eigenvalues --    3.23708   3.25560   3.26272   3.27749   3.28643
 Alpha virt. eigenvalues --    3.28993   3.29593   3.30408   3.31127   3.32720
 Alpha virt. eigenvalues --    3.34365   3.34679   3.35996   3.36420   3.38454
 Alpha virt. eigenvalues --    3.38752   3.39667   3.39866   3.40364   3.40504
 Alpha virt. eigenvalues --    3.41330   3.42201   3.44341   3.45978   3.46308
 Alpha virt. eigenvalues --    3.47913   3.48293   3.48795   3.49173   3.50447
 Alpha virt. eigenvalues --    3.51592   3.51757   3.52527   3.54298   3.54301
 Alpha virt. eigenvalues --    3.54848   3.55166   3.57707   3.58322   3.58871
 Alpha virt. eigenvalues --    3.59510   3.60142   3.60392   3.62847   3.63118
 Alpha virt. eigenvalues --    3.64208   3.64308   3.65300   3.65505   3.66454
 Alpha virt. eigenvalues --    3.68423   3.69172   3.71032   3.71652   3.72311
 Alpha virt. eigenvalues --    3.75088   3.75745   3.76227   3.76259   3.77771
 Alpha virt. eigenvalues --    3.78365   3.78623   3.78702   3.79734   3.81019
 Alpha virt. eigenvalues --    3.82449   3.83647   3.85086   3.85406   3.86096
 Alpha virt. eigenvalues --    3.86227   3.87761   3.88145   3.89381   3.91667
 Alpha virt. eigenvalues --    3.92490   3.92996   3.93671   3.96132   3.96336
 Alpha virt. eigenvalues --    3.97831   3.98398   3.99687   4.00982   4.01528
 Alpha virt. eigenvalues --    4.02516   4.02905   4.05807   4.06320   4.07217
 Alpha virt. eigenvalues --    4.07383   4.08395   4.09889   4.10776   4.12411
 Alpha virt. eigenvalues --    4.13565   4.14133   4.18111   4.18487   4.19180
 Alpha virt. eigenvalues --    4.21210   4.21288   4.22503   4.24176   4.24214
 Alpha virt. eigenvalues --    4.26105   4.27659   4.27710   4.28917   4.31328
 Alpha virt. eigenvalues --    4.31383   4.34831   4.36895   4.37511   4.37589
 Alpha virt. eigenvalues --    4.39815   4.40018   4.42611   4.42994   4.43407
 Alpha virt. eigenvalues --    4.44273   4.46096   4.46749   4.47430   4.48018
 Alpha virt. eigenvalues --    4.48507   4.49279   4.49717   4.50216   4.54077
 Alpha virt. eigenvalues --    4.55297   4.56596   4.57120   4.58918   4.60910
 Alpha virt. eigenvalues --    4.62442   4.62447   4.63240   4.67457   4.68928
 Alpha virt. eigenvalues --    4.70426   4.71280   4.71400   4.75395   4.75456
 Alpha virt. eigenvalues --    4.77373   4.78969   4.79074   4.80022   4.81290
 Alpha virt. eigenvalues --    4.82031   4.83283   4.84616   4.85369   4.85435
 Alpha virt. eigenvalues --    4.87037   4.87203   4.88604   4.89765   4.90539
 Alpha virt. eigenvalues --    4.92426   4.94929   4.97449   4.97583   5.03734
 Alpha virt. eigenvalues --    5.03906   5.06157   5.07536   5.09824   5.12205
 Alpha virt. eigenvalues --    5.12683   5.13373   5.14793   5.17253   5.17516
 Alpha virt. eigenvalues --    5.19573   5.20709   5.22503   5.23081   5.25262
 Alpha virt. eigenvalues --    5.27079   5.29830   5.31262   5.32475   5.35104
 Alpha virt. eigenvalues --    5.35627   5.38672   5.43478   5.47848   5.50043
 Alpha virt. eigenvalues --    5.52722   5.54664   5.57227   5.60945   5.62412
 Alpha virt. eigenvalues --    5.63143   5.65360   5.66209   5.68838   5.68952
 Alpha virt. eigenvalues --    5.73500   5.74342   5.75059   5.77207   5.78926
 Alpha virt. eigenvalues --    5.78933   5.81607   5.87603   5.92897   5.94086
 Alpha virt. eigenvalues --    5.98083   6.01325   6.11529   6.18819   6.25102
 Alpha virt. eigenvalues --    6.25622   6.26653   6.26978   6.28649   6.33876
 Alpha virt. eigenvalues --    6.38207   6.39086   6.41678   6.41864   6.43373
 Alpha virt. eigenvalues --    6.47360   6.48135   6.50959   6.55465   6.56509
 Alpha virt. eigenvalues --    6.60919   6.64577   6.65232   6.72591   6.75214
 Alpha virt. eigenvalues --    6.77493   6.81546   6.82046   6.86464   6.87187
 Alpha virt. eigenvalues --    6.89617   6.92188   6.97705   7.11197   7.12439
 Alpha virt. eigenvalues --    7.19372   7.19488   7.28034   7.38055   7.43729
 Alpha virt. eigenvalues --    7.59231   7.76394   7.91671   8.10017  15.64459
 Alpha virt. eigenvalues --   16.07021  17.22427  17.86259  18.58597  18.66396
 Alpha virt. eigenvalues --   19.39262  19.66424  21.32735  21.52302  22.26233
          Condensed to atoms (all electrons):
               1          2          3          4          5          6
     1  C    6.476288   0.564576  -0.475939  -0.064059  -0.005664   0.073046
     2  N    0.564576   7.895206  -0.665766  -0.561892   0.065869  -0.515708
     3  C   -0.475939  -0.665766  11.146247  -0.422942  -0.001773  -0.691221
     4  C   -0.064059  -0.561892  -0.422942   8.146567  -0.132951  -0.300449
     5  C   -0.005664   0.065869  -0.001773  -0.132951   6.238174  -0.404597
     6  C    0.073046  -0.515708  -0.691221  -0.300449  -0.404597   8.541385
     7  C   -0.274509   0.118491  -0.630950  -0.466489  -0.049776  -0.350351
     8  C   -0.069232  -0.259050   0.056303   0.035596   0.017193  -0.365202
     9  C    0.047203   0.326410  -3.403387  -0.508233  -0.132189   0.645503
    10  O   -0.020846  -0.057099   0.174714   0.113355   0.015373  -0.043055
    11  O   -0.021736   0.003049  -0.367270   0.082536  -0.001932   0.056289
    12  H    0.311640   0.010304  -0.045568  -0.016085   0.000835  -0.010021
    13  H    0.411113  -0.007443   0.009681   0.002006   0.001043  -0.000072
    14  H    0.411090  -0.007511   0.009694   0.001995   0.001041  -0.000082
    15  H   -0.000490   0.003059  -0.070405  -0.121075   0.440501   0.017019
    16  H   -0.000496   0.003038  -0.070279  -0.121244   0.440526   0.016947
    17  H    0.000515   0.011074   0.049730   0.011730   0.492240  -0.100459
    18  H   -0.011756  -0.033316  -0.078801   0.078095  -0.054375   0.294568
    19  H    0.009126   0.004055   0.015096  -0.003171   0.002185  -0.116244
    20  H   -0.021136  -0.048730  -0.001134   0.003130  -0.000114  -0.020306
    21  H   -0.021151  -0.048779  -0.001163   0.003150  -0.000118  -0.020265
    22  H   -0.005438  -0.003054  -0.051185  -0.021220  -0.013492  -0.002444
               7          8          9         10         11         12
     1  C   -0.274509  -0.069232   0.047203  -0.020846  -0.021736   0.311640
     2  N    0.118491  -0.259050   0.326410  -0.057099   0.003049   0.010304
     3  C   -0.630950   0.056303  -3.403387   0.174714  -0.367270  -0.045568
     4  C   -0.466489   0.035596  -0.508233   0.113355   0.082536  -0.016085
     5  C   -0.049776   0.017193  -0.132189   0.015373  -0.001932   0.000835
     6  C   -0.350351  -0.365202   0.645503  -0.043055   0.056289  -0.010021
     7  C    7.727534  -0.322426  -0.035734  -0.054600  -0.004816   0.019976
     8  C   -0.322426   6.426693  -0.051673  -0.000002  -0.001035  -0.014785
     9  C   -0.035734  -0.051673   9.161370  -0.313581   0.261684   0.042863
    10  O   -0.054600  -0.000002  -0.313581   9.420233  -0.232494  -0.001247
    11  O   -0.004816  -0.001035   0.261684  -0.232494   8.555398  -0.000293
    12  H    0.019976  -0.014785   0.042863  -0.001247  -0.000293   0.524966
    13  H   -0.022636  -0.003218  -0.043591  -0.004610  -0.000086  -0.048709
    14  H   -0.022593  -0.003209  -0.043601  -0.004624  -0.000085  -0.048744
    15  H   -0.002836  -0.000822   0.032656   0.003674  -0.003293  -0.000040
    16  H   -0.002832  -0.000831   0.032606   0.003668  -0.003333  -0.000040
    17  H   -0.010269   0.003999  -0.014844  -0.000728  -0.004816   0.000129
    18  H   -0.142116  -0.041040  -0.020431   0.000943  -0.001303  -0.002789
    19  H   -0.063580   0.529821  -0.004373  -0.000026  -0.000076  -0.001941
    20  H   -0.084110   0.458993   0.000429  -0.000225   0.000072  -0.004185
    21  H   -0.084112   0.459033   0.000425  -0.000224   0.000073  -0.004196
    22  H    0.008308   0.000387   0.116533  -0.091134   0.186759   0.000101
              13         14         15         16         17         18
     1  C    0.411113   0.411090  -0.000490  -0.000496   0.000515  -0.011756
     2  N   -0.007443  -0.007511   0.003059   0.003038   0.011074  -0.033316
     3  C    0.009681   0.009694  -0.070405  -0.070279   0.049730  -0.078801
     4  C    0.002006   0.001995  -0.121075  -0.121244   0.011730   0.078095
     5  C    0.001043   0.001041   0.440501   0.440526   0.492240  -0.054375
     6  C   -0.000072  -0.000082   0.017019   0.016947  -0.100459   0.294568
     7  C   -0.022636  -0.022593  -0.002836  -0.002832  -0.010269  -0.142116
     8  C   -0.003218  -0.003209  -0.000822  -0.000831   0.003999  -0.041040
     9  C   -0.043591  -0.043601   0.032656   0.032606  -0.014844  -0.020431
    10  O   -0.004610  -0.004624   0.003674   0.003668  -0.000728   0.000943
    11  O   -0.000086  -0.000085  -0.003293  -0.003333  -0.004816  -0.001303
    12  H   -0.048709  -0.048744  -0.000040  -0.000040   0.000129  -0.002789
    13  H    0.357241   0.045094  -0.000414   0.000652   0.000091   0.000074
    14  H    0.045094   0.357301   0.000651  -0.000414   0.000091   0.000074
    15  H   -0.000414   0.000651   0.494643  -0.006692  -0.041468   0.001699
    16  H    0.000652  -0.000414  -0.006692   0.494753  -0.041582   0.001653
    17  H    0.000091   0.000091  -0.041468  -0.041582   0.624475  -0.049544
    18  H    0.000074   0.000074   0.001699   0.001653  -0.049544   0.953012
    19  H    0.001760   0.001762   0.000153   0.000153  -0.000083  -0.046579
    20  H   -0.004126  -0.002623  -0.000046  -0.000144   0.000084  -0.004736
    21  H   -0.002624  -0.004130  -0.000145  -0.000047   0.000085  -0.004728
    22  H   -0.000267  -0.000269  -0.002549  -0.002536   0.000471  -0.000204
              19         20         21         22
     1  C    0.009126  -0.021136  -0.021151  -0.005438
     2  N    0.004055  -0.048730  -0.048779  -0.003054
     3  C    0.015096  -0.001134  -0.001163  -0.051185
     4  C   -0.003171   0.003130   0.003150  -0.021220
     5  C    0.002185  -0.000114  -0.000118  -0.013492
     6  C   -0.116244  -0.020306  -0.020265  -0.002444
     7  C   -0.063580  -0.084110  -0.084112   0.008308
     8  C    0.529821   0.458993   0.459033   0.000387
     9  C   -0.004373   0.000429   0.000425   0.116533
    10  O   -0.000026  -0.000225  -0.000224  -0.091134
    11  O   -0.000076   0.000072   0.000073   0.186759
    12  H   -0.001941  -0.004185  -0.004196   0.000101
    13  H    0.001760  -0.004126  -0.002624  -0.000267
    14  H    0.001762  -0.002623  -0.004130  -0.000269
    15  H    0.000153  -0.000046  -0.000145  -0.002549
    16  H    0.000153  -0.000144  -0.000047  -0.002536
    17  H   -0.000083   0.000084   0.000085   0.000471
    18  H   -0.046579  -0.004736  -0.004728  -0.000204
    19  H    0.622645  -0.053038  -0.053121  -0.000007
    20  H   -0.053038   0.499601   0.028443   0.000069
    21  H   -0.053121   0.028443   0.499672   0.000070
    22  H   -0.000007   0.000069   0.000070   0.628492
 Mulliken charges:
               1
     1  C   -1.312146
     2  N    0.203215
     3  C    1.516319
     4  C    0.261648
     5  C   -0.917998
     6  C   -0.704281
     7  C    0.750426
     8  C   -0.855495
     9  C   -0.096044
    10  O   -0.907464
    11  O   -0.503292
    12  H    0.287830
    13  H    0.309040
    14  H    0.309093
    15  H    0.256221
    16  H    0.256474
    17  H    0.069080
    18  H    0.161598
    19  H    0.155484
    20  H    0.253831
    21  H    0.253852
    22  H    0.252609
 Sum of Mulliken charges =   0.00000
 Mulliken charges with hydrogens summed into heavy atoms:
               1
     1  C   -0.406183
     2  N    0.203215
     3  C    1.516319
     4  C    0.261648
     5  C   -0.336223
     6  C   -0.542683
     7  C    0.750426
     8  C   -0.192328
     9  C   -0.096044
    10  O   -0.907464
    11  O   -0.250683
 Electronic spatial extent (au):  <R**2>=           1734.3492
 Charge=              0.0000 electrons
 Dipole moment (field-independent basis, Debye):
    X=              2.4112    Y=              0.3522    Z=              0.0002  Tot=              2.4368
 Quadrupole moment (field-independent basis, Debye-Ang):
   XX=            -56.1855   YY=            -67.5828   ZZ=            -66.3339
   XY=             -3.7136   XZ=             -0.0009   YZ=             -0.0017
 Traceless Quadrupole moment (field-independent basis, Debye-Ang):
   XX=              7.1819   YY=             -4.2154   ZZ=             -2.9665
   XY=             -3.7136   XZ=             -0.0009   YZ=             -0.0017
 Octapole moment (field-independent basis, Debye-Ang**2):
  XXX=            -26.9751  YYY=              3.7947  ZZZ=              0.0007  XYY=             13.7498
  XXY=             -6.1976  XXZ=             -0.0016  XZZ=             -6.2755  YZZ=             -7.3001
  YYZ=              0.0000  XYZ=             -0.0003
 Hexadecapole moment (field-independent basis, Debye-Ang**3):
 XXXX=          -1142.2633 YYYY=           -864.8840 ZZZZ=            -90.1274 XXXY=             49.7949
 XXXZ=             -0.0052 YYYX=            -21.6584 YYYZ=             -0.0085 ZZZX=             -0.0039
 ZZZY=              0.0022 XXYY=           -377.3832 XXZZ=           -238.7256 YYZZ=           -159.2379
 XXYZ=             -0.0076 YYXZ=             -0.0060 ZZXY=             -3.4318
 N-N= 6.389697521124D+02 E-N=-2.483391705455D+03  KE= 5.147826527045D+02
 ******************************Gaussian NBO Version 3.1******************************
             N A T U R A L   A T O M I C   O R B I T A L   A N D
          N A T U R A L   B O N D   O R B I T A L   A N A L Y S I S
 ******************************Gaussian NBO Version 3.1******************************
       /RESON  / : Allow strongly delocalized NBO set

 Analyzing the SCF density

 Job title: 12                                                              

 Storage needed:   1731399 in NPA,   2307131 in NBO (********** available)
 GSVD:  LWork=       47697 too small for GESVD, short by     1004463 words or     1004463 for optimal perf.


 NATURAL POPULATIONS:  Natural atomic orbital occupancies 
                                                          
   NAO  Atom  No  lang   Type(AO)    Occupancy      Energy
 ----------------------------------------------------------
     1    C    1  S      Cor( 1S)     1.99944     -10.45382
     2    C    1  S      Val( 2S)     1.09124      -0.31264
     3    C    1  S      Ryd( 3S)     0.00084       1.30594
     4    C    1  S      Ryd( 5S)     0.00004       4.16316
     5    C    1  S      Ryd( 4S)     0.00001       1.34270
     6    C    1  px     Val( 2p)     1.19669      -0.13504
     7    C    1  px     Ryd( 3p)     0.00170       1.31276
     8    C    1  px     Ryd( 5p)     0.00008       1.94389
     9    C    1  px     Ryd( 4p)     0.00001       1.37371
    10    C    1  py     Val( 2p)     0.85385      -0.07763
    11    C    1  py     Ryd( 4p)     0.00155       1.33237
    12    C    1  py     Ryd( 5p)     0.00013       1.41611
    13    C    1  py     Ryd( 3p)     0.00001       1.27991
    14    C    1  pz     Val( 2p)     1.22714      -0.14279
    15    C    1  pz     Ryd( 4p)     0.00078       1.18242
    16    C    1  pz     Ryd( 5p)     0.00004       1.69539
    17    C    1  pz     Ryd( 3p)     0.00003       1.10656
    18    C    1  dxy    Ryd( 4d)     0.00018       1.90141
    19    C    1  dxy    Ryd( 5d)     0.00007       3.48206
    20    C    1  dxy    Ryd( 3d)     0.00002       1.36530
    21    C    1  dxz    Ryd( 4d)     0.00106       1.62839
    22    C    1  dxz    Ryd( 5d)     0.00001       3.24621
    23    C    1  dxz    Ryd( 3d)     0.00000       1.50266
    24    C    1  dyz    Ryd( 4d)     0.00146       1.60206
    25    C    1  dyz    Ryd( 5d)     0.00008       3.36732
    26    C    1  dyz    Ryd( 3d)     0.00001       1.35199
    27    C    1  dx2y2  Ryd( 4d)     0.00186       2.28508
    28    C    1  dx2y2  Ryd( 5d)     0.00008       3.76575
    29    C    1  dx2y2  Ryd( 3d)     0.00002       1.56993
    30    C    1  dz2    Ryd( 4d)     0.00210       1.91659
    31    C    1  dz2    Ryd( 5d)     0.00004       3.59698
    32    C    1  dz2    Ryd( 3d)     0.00002       1.83543
    33    C    1  f(0)   Ryd( 5f)     0.00001       3.86010
    34    C    1  f(0)   Ryd( 4f)     0.00000       2.30955
    35    C    1  f(C1)  Ryd( 5f)     0.00010       4.05630
    36    C    1  f(C1)  Ryd( 4f)     0.00003       3.08032
    37    C    1  f(S1)  Ryd( 5f)     0.00008       4.34015
    38    C    1  f(S1)  Ryd( 4f)     0.00002       3.79788
    39    C    1  f(C2)  Ryd( 5f)     0.00003       3.90881
    40    C    1  f(C2)  Ryd( 4f)     0.00002       2.26877
    41    C    1  f(S2)  Ryd( 5f)     0.00001       3.98471
    42    C    1  f(S2)  Ryd( 4f)     0.00003       2.73233
    43    C    1  f(C3)  Ryd( 5f)     0.00004       4.31610
    44    C    1  f(C3)  Ryd( 4f)     0.00002       3.02048
    45    C    1  f(S3)  Ryd( 5f)     0.00004       4.23389
    46    C    1  f(S3)  Ryd( 4f)     0.00002       2.64108
 
    47    N    2  S      Cor( 1S)     1.99906     -14.58926
    48    N    2  S      Val( 2S)     1.12868      -0.50827
    49    N    2  S      Ryd( 4S)     0.00095       2.17067
    50    N    2  S      Ryd( 5S)     0.00002      10.88879
    51    N    2  S      Ryd( 3S)     0.00001       1.92761
    52    N    2  px     Val( 2p)     1.30475      -0.28779
    53    N    2  px     Ryd( 4p)     0.00214       2.70537
    54    N    2  px     Ryd( 3p)     0.00079       2.26901
    55    N    2  px     Ryd( 5p)     0.00007       3.30767
    56    N    2  py     Val( 2p)     1.30772      -0.29424
    57    N    2  py     Ryd( 4p)     0.00334       2.83989
    58    N    2  py     Ryd( 3p)     0.00052       2.09634
    59    N    2  py     Ryd( 5p)     0.00005       4.12570
    60    N    2  pz     Val( 2p)     1.51526      -0.30241
    61    N    2  pz     Ryd( 4p)     0.00403       0.86205
    62    N    2  pz     Ryd( 3p)     0.00026       0.46466
    63    N    2  pz     Ryd( 5p)     0.00006       3.36246
    64    N    2  dxy    Ryd( 5d)     0.00196       5.80796
    65    N    2  dxy    Ryd( 4d)     0.00043       5.02455
    66    N    2  dxy    Ryd( 3d)     0.00006       4.78593
    67    N    2  dxz    Ryd( 3d)     0.00076       2.00110
    68    N    2  dxz    Ryd( 4d)     0.00013       3.34874
    69    N    2  dxz    Ryd( 5d)     0.00002       3.51455
    70    N    2  dyz    Ryd( 3d)     0.00060       1.98979
    71    N    2  dyz    Ryd( 4d)     0.00020       3.32584
    72    N    2  dyz    Ryd( 5d)     0.00006       3.54097
    73    N    2  dx2y2  Ryd( 3d)     0.00070       4.62959
    74    N    2  dx2y2  Ryd( 4d)     0.00042       4.72576
    75    N    2  dx2y2  Ryd( 5d)     0.00007       5.22432
    76    N    2  dz2    Ryd( 3d)     0.00127       3.14190
    77    N    2  dz2    Ryd( 4d)     0.00017       3.50401
    78    N    2  dz2    Ryd( 5d)     0.00010       5.28272
    79    N    2  f(0)   Ryd( 4f)     0.00207       1.77560
    80    N    2  f(0)   Ryd( 5f)     0.00011       4.97601
    81    N    2  f(C1)  Ryd( 4f)     0.00146       2.44342
    82    N    2  f(C1)  Ryd( 5f)     0.00007       5.08851
    83    N    2  f(S1)  Ryd( 4f)     0.00177       2.72344
    84    N    2  f(S1)  Ryd( 5f)     0.00006       5.08237
    85    N    2  f(C2)  Ryd( 4f)     0.00066       1.66456
    86    N    2  f(C2)  Ryd( 5f)     0.00006       5.02468
    87    N    2  f(S2)  Ryd( 4f)     0.00053       1.72274
    88    N    2  f(S2)  Ryd( 5f)     0.00007       5.04201
    89    N    2  f(C3)  Ryd( 4f)     0.00131       2.77700
    90    N    2  f(C3)  Ryd( 5f)     0.00016       5.56440
    91    N    2  f(S3)  Ryd( 4f)     0.00086       3.37920
    92    N    2  f(S3)  Ryd( 5f)     0.00015       5.55020
 
    93    C    3  S      Cor( 1S)     1.99867     -10.37266
    94    C    3  S      Val( 2S)     0.80928      -0.01777
    95    C    3  S      Ryd( 4S)     0.00125       2.03885
    96    C    3  S      Ryd( 5S)     0.00007       3.43607
    97    C    3  S      Ryd( 3S)     0.00001       1.42346
    98    C    3  px     Val( 2p)     0.99617      -0.04649
    99    C    3  px     Ryd( 4p)     0.00384       2.61780
   100    C    3  px     Ryd( 5p)     0.00050       2.86840
   101    C    3  px     Ryd( 3p)     0.00004       0.95667
   102    C    3  py     Val( 2p)     1.08154      -0.08515
   103    C    3  py     Ryd( 4p)     0.00588       2.30408
   104    C    3  py     Ryd( 5p)     0.00033       2.59644
   105    C    3  py     Ryd( 3p)     0.00002       0.88175
   106    C    3  pz     Val( 2p)     1.17379      -0.12891
   107    C    3  pz     Ryd( 4p)     0.00400       1.02692
   108    C    3  pz     Ryd( 5p)     0.00004       1.80807
   109    C    3  pz     Ryd( 3p)     0.00006       0.70885
   110    C    3  dxy    Ryd( 4d)     0.00063       3.69308
   111    C    3  dxy    Ryd( 3d)     0.00053       2.66227
   112    C    3  dxy    Ryd( 5d)     0.00007       5.55187
   113    C    3  dxz    Ryd( 4d)     0.00020       2.78633
   114    C    3  dxz    Ryd( 3d)     0.00038       1.65710
   115    C    3  dxz    Ryd( 5d)     0.00006       2.90210
   116    C    3  dyz    Ryd( 4d)     0.00036       2.67697
   117    C    3  dyz    Ryd( 3d)     0.00007       1.59697
   118    C    3  dyz    Ryd( 5d)     0.00005       2.98954
   119    C    3  dx2y2  Ryd( 4d)     0.00074       3.86661
   120    C    3  dx2y2  Ryd( 3d)     0.00047       2.92459
   121    C    3  dx2y2  Ryd( 5d)     0.00005       5.47743
   122    C    3  dz2    Ryd( 4d)     0.00053       3.42687
   123    C    3  dz2    Ryd( 3d)     0.00032       1.84051
   124    C    3  dz2    Ryd( 5d)     0.00003       5.87381
   125    C    3  f(0)   Ryd( 4f)     0.00083       1.55722
   126    C    3  f(0)   Ryd( 5f)     0.00016       3.66917
   127    C    3  f(C1)  Ryd( 4f)     0.00068       2.18949
   128    C    3  f(C1)  Ryd( 5f)     0.00011       4.09820
   129    C    3  f(S1)  Ryd( 4f)     0.00085       2.08809
   130    C    3  f(S1)  Ryd( 5f)     0.00009       4.05327
   131    C    3  f(C2)  Ryd( 4f)     0.00108       1.50608
   132    C    3  f(C2)  Ryd( 5f)     0.00004       3.72788
   133    C    3  f(S2)  Ryd( 4f)     0.00054       1.47706
   134    C    3  f(S2)  Ryd( 5f)     0.00002       3.66291
   135    C    3  f(C3)  Ryd( 4f)     0.00214       2.48824
   136    C    3  f(C3)  Ryd( 5f)     0.00012       4.75675
   137    C    3  f(S3)  Ryd( 4f)     0.00107       3.63248
   138    C    3  f(S3)  Ryd( 5f)     0.00011       4.47974
 
   139    C    4  S      Cor( 1S)     1.99898     -10.35967
   140    C    4  S      Val( 2S)     0.87631      -0.11196
   141    C    4  S      Ryd( 3S)     0.00113       1.78528
   142    C    4  S      Ryd( 5S)     0.00009       2.78790
   143    C    4  S      Ryd( 4S)     0.00001       2.01953
   144    C    4  px     Val( 2p)     1.06497      -0.04870
   145    C    4  px     Ryd( 4p)     0.00353       2.06852
   146    C    4  px     Ryd( 3p)     0.00003       0.70936
   147    C    4  px     Ryd( 5p)     0.00004       3.00668
   148    C    4  py     Val( 2p)     1.02543      -0.02308
   149    C    4  py     Ryd( 4p)     0.00377       2.14528
   150    C    4  py     Ryd( 3p)     0.00002       0.61496
   151    C    4  py     Ryd( 5p)     0.00005       2.94721
   152    C    4  pz     Val( 2p)     1.01107      -0.09394
   153    C    4  pz     Ryd( 4p)     0.00237       1.01514
   154    C    4  pz     Ryd( 3p)     0.00006       0.54361
   155    C    4  pz     Ryd( 5p)     0.00003       1.90939
   156    C    4  dxy    Ryd( 3d)     0.00067       2.92107
   157    C    4  dxy    Ryd( 5d)     0.00023       3.89062
   158    C    4  dxy    Ryd( 4d)     0.00005       3.51782
   159    C    4  dxz    Ryd( 3d)     0.00105       1.73394
   160    C    4  dxz    Ryd( 5d)     0.00005       2.95780
   161    C    4  dxz    Ryd( 4d)     0.00003       2.65091
   162    C    4  dyz    Ryd( 3d)     0.00055       1.56464
   163    C    4  dyz    Ryd( 5d)     0.00023       2.86919
   164    C    4  dyz    Ryd( 4d)     0.00010       2.41014
   165    C    4  dx2y2  Ryd( 3d)     0.00108       3.74303
   166    C    4  dx2y2  Ryd( 4d)     0.00034       4.04036
   167    C    4  dx2y2  Ryd( 5d)     0.00004       4.08452
   168    C    4  dz2    Ryd( 3d)     0.00111       2.02796
   169    C    4  dz2    Ryd( 4d)     0.00010       3.73646
   170    C    4  dz2    Ryd( 5d)     0.00005       4.45331
   171    C    4  f(0)   Ryd( 4f)     0.00052       1.54807
   172    C    4  f(0)   Ryd( 5f)     0.00011       3.66912
   173    C    4  f(C1)  Ryd( 4f)     0.00094       1.85537
   174    C    4  f(C1)  Ryd( 5f)     0.00011       3.76736
   175    C    4  f(S1)  Ryd( 4f)     0.00075       2.07307
   176    C    4  f(S1)  Ryd( 5f)     0.00013       3.80922
   177    C    4  f(C2)  Ryd( 4f)     0.00075       1.40226
   178    C    4  f(C2)  Ryd( 5f)     0.00002       3.75057
   179    C    4  f(S2)  Ryd( 4f)     0.00080       1.39576
   180    C    4  f(S2)  Ryd( 5f)     0.00002       3.76432
   181    C    4  f(C3)  Ryd( 4f)     0.00127       3.15099
   182    C    4  f(C3)  Ryd( 5f)     0.00012       4.53415
   183    C    4  f(S3)  Ryd( 4f)     0.00167       2.69764
   184    C    4  f(S3)  Ryd( 5f)     0.00011       4.61949
 
   185    C    5  S      Cor( 1S)     1.99947     -10.38740
   186    C    5  S      Val( 2S)     1.09880      -0.28249
   187    C    5  S      Ryd( 3S)     0.00078       1.31333
   188    C    5  S      Ryd( 5S)     0.00005       5.46567
   189    C    5  S      Ryd( 4S)     0.00002       1.38470
   190    C    5  px     Val( 2p)     1.15550      -0.09517
   191    C    5  px     Ryd( 3p)     0.00161       1.24696
   192    C    5  px     Ryd( 5p)     0.00008       1.76093
   193    C    5  px     Ryd( 4p)     0.00002       1.54286
   194    C    5  py     Val( 2p)     1.12253      -0.08938
   195    C    5  py     Ryd( 3p)     0.00103       1.25663
   196    C    5  py     Ryd( 5p)     0.00006       1.84157
   197    C    5  py     Ryd( 4p)     0.00001       1.62452
   198    C    5  pz     Val( 2p)     1.21693      -0.10619
   199    C    5  pz     Ryd( 3p)     0.00051       1.16349
   200    C    5  pz     Ryd( 5p)     0.00003       1.61259
   201    C    5  pz     Ryd( 4p)     0.00001       1.28772
   202    C    5  dxy    Ryd( 4d)     0.00206       2.03831
   203    C    5  dxy    Ryd( 5d)     0.00007       3.66166
   204    C    5  dxy    Ryd( 3d)     0.00002       1.32622
   205    C    5  dxz    Ryd( 4d)     0.00199       1.70761
   206    C    5  dxz    Ryd( 5d)     0.00004       3.60613
   207    C    5  dxz    Ryd( 3d)     0.00001       1.38795
   208    C    5  dyz    Ryd( 4d)     0.00023       1.57656
   209    C    5  dyz    Ryd( 5d)     0.00001       3.24303
   210    C    5  dyz    Ryd( 3d)     0.00000       1.17206
   211    C    5  dx2y2  Ryd( 4d)     0.00035       1.90230
   212    C    5  dx2y2  Ryd( 5d)     0.00002       3.44001
   213    C    5  dx2y2  Ryd( 3d)     0.00002       1.33552
   214    C    5  dz2    Ryd( 4d)     0.00186       1.88001
   215    C    5  dz2    Ryd( 5d)     0.00005       3.67722
   216    C    5  dz2    Ryd( 3d)     0.00002       1.55810
   217    C    5  f(0)   Ryd( 5f)     0.00000       3.85916
   218    C    5  f(0)   Ryd( 4f)     0.00002       2.16199
   219    C    5  f(C1)  Ryd( 5f)     0.00015       4.28051
   220    C    5  f(C1)  Ryd( 4f)     0.00003       3.49604
   221    C    5  f(S1)  Ryd( 5f)     0.00003       3.89290
   222    C    5  f(S1)  Ryd( 4f)     0.00003       3.69045
   223    C    5  f(C2)  Ryd( 5f)     0.00002       3.82725
   224    C    5  f(C2)  Ryd( 4f)     0.00001       2.70417
   225    C    5  f(S2)  Ryd( 5f)     0.00001       3.84405
   226    C    5  f(S2)  Ryd( 4f)     0.00002       2.17308
   227    C    5  f(C3)  Ryd( 5f)     0.00007       4.04477
   228    C    5  f(C3)  Ryd( 4f)     0.00001       3.26680
   229    C    5  f(S3)  Ryd( 5f)     0.00002       4.00664
   230    C    5  f(S3)  Ryd( 4f)     0.00005       2.93325
 
   231    C    6  S      Cor( 1S)     1.99888     -10.33350
   232    C    6  S      Val( 2S)     0.93113      -0.13167
   233    C    6  S      Ryd( 4S)     0.00059       2.13910
   234    C    6  S      Ryd( 5S)     0.00008       2.73207
   235    C    6  S      Ryd( 3S)     0.00001       1.68176
   236    C    6  px     Val( 2p)     1.07992      -0.05818
   237    C    6  px     Ryd( 4p)     0.00329       1.82452
   238    C    6  px     Ryd( 3p)     0.00007       1.41584
   239    C    6  px     Ryd( 5p)     0.00003       2.27662
   240    C    6  py     Val( 2p)     1.14383      -0.06092
   241    C    6  py     Ryd( 4p)     0.00353       1.93533
   242    C    6  py     Ryd( 3p)     0.00007       1.69111
   243    C    6  py     Ryd( 5p)     0.00005       2.02682
   244    C    6  pz     Val( 2p)     1.12205      -0.10884
   245    C    6  pz     Ryd( 3p)     0.00128       1.07015
   246    C    6  pz     Ryd( 4p)     0.00009       1.10014
   247    C    6  pz     Ryd( 5p)     0.00008       1.31368
   248    C    6  dxy    Ryd( 3d)     0.00143       2.87477
   249    C    6  dxy    Ryd( 5d)     0.00013       3.82056
   250    C    6  dxy    Ryd( 4d)     0.00007       3.08996
   251    C    6  dxz    Ryd( 3d)     0.00049       1.69989
   252    C    6  dxz    Ryd( 5d)     0.00015       3.00321
   253    C    6  dxz    Ryd( 4d)     0.00001       2.30272
   254    C    6  dyz    Ryd( 3d)     0.00039       1.59520
   255    C    6  dyz    Ryd( 5d)     0.00005       3.07485
   256    C    6  dyz    Ryd( 4d)     0.00005       1.85278
   257    C    6  dx2y2  Ryd( 4d)     0.00142       3.19474
   258    C    6  dx2y2  Ryd( 5d)     0.00015       4.14348
   259    C    6  dx2y2  Ryd( 3d)     0.00004       2.79262
   260    C    6  dz2    Ryd( 3d)     0.00125       1.92301
   261    C    6  dz2    Ryd( 4d)     0.00004       3.77556
   262    C    6  dz2    Ryd( 5d)     0.00004       4.40971
   263    C    6  f(0)   Ryd( 4f)     0.00029       1.55537
   264    C    6  f(0)   Ryd( 5f)     0.00013       3.46510
   265    C    6  f(C1)  Ryd( 4f)     0.00053       2.06458
   266    C    6  f(C1)  Ryd( 5f)     0.00015       3.63561
   267    C    6  f(S1)  Ryd( 4f)     0.00090       1.96227
   268    C    6  f(S1)  Ryd( 5f)     0.00008       3.64965
   269    C    6  f(C2)  Ryd( 4f)     0.00019       1.55629
   270    C    6  f(C2)  Ryd( 5f)     0.00003       3.50429
   271    C    6  f(S2)  Ryd( 4f)     0.00023       1.55086
   272    C    6  f(S2)  Ryd( 5f)     0.00003       3.48694
   273    C    6  f(C3)  Ryd( 4f)     0.00036       3.61790
   274    C    6  f(C3)  Ryd( 5f)     0.00022       3.95872
   275    C    6  f(S3)  Ryd( 4f)     0.00069       1.94809
   276    C    6  f(S3)  Ryd( 5f)     0.00016       4.41125
 
   277    C    7  S      Cor( 1S)     1.99896     -10.40353
   278    C    7  S      Val( 2S)     0.82132      -0.08408
   279    C    7  S      Ryd( 4S)     0.00136       1.69022
   280    C    7  S      Ryd( 5S)     0.00007       3.10126
   281    C    7  S      Ryd( 3S)     0.00001       1.55801
   282    C    7  px     Val( 2p)     0.99430      -0.03902
   283    C    7  px     Ryd( 4p)     0.00345       2.29648
   284    C    7  px     Ryd( 5p)     0.00005       2.31234
   285    C    7  px     Ryd( 3p)     0.00001       1.51775
   286    C    7  py     Val( 2p)     0.97896      -0.04431
   287    C    7  py     Ryd( 4p)     0.00412       1.73486
   288    C    7  py     Ryd( 5p)     0.00004       2.03093
   289    C    7  py     Ryd( 3p)     0.00002       1.61964
   290    C    7  pz     Val( 2p)     1.00342      -0.11364
   291    C    7  pz     Ryd( 4p)     0.00346       1.02145
   292    C    7  pz     Ryd( 5p)     0.00005       1.32888
   293    C    7  pz     Ryd( 3p)     0.00004       0.95219
   294    C    7  dxy    Ryd( 4d)     0.00065       4.10267
   295    C    7  dxy    Ryd( 3d)     0.00028       2.91576
   296    C    7  dxy    Ryd( 5d)     0.00004       4.24608
   297    C    7  dxz    Ryd( 5d)     0.00027       2.86041
   298    C    7  dxz    Ryd( 3d)     0.00034       1.64439
   299    C    7  dxz    Ryd( 4d)     0.00004       2.78283
   300    C    7  dyz    Ryd( 4d)     0.00081       2.80146
   301    C    7  dyz    Ryd( 3d)     0.00033       1.35261
   302    C    7  dyz    Ryd( 5d)     0.00006       2.80931
   303    C    7  dx2y2  Ryd( 4d)     0.00048       3.73011
   304    C    7  dx2y2  Ryd( 3d)     0.00029       2.70866
   305    C    7  dx2y2  Ryd( 5d)     0.00002       4.18024
   306    C    7  dz2    Ryd( 4d)     0.00037       3.89696
   307    C    7  dz2    Ryd( 3d)     0.00051       1.62215
   308    C    7  dz2    Ryd( 5d)     0.00004       5.23488
   309    C    7  f(0)   Ryd( 4f)     0.00028       1.51796
   310    C    7  f(0)   Ryd( 5f)     0.00014       3.69818
   311    C    7  f(C1)  Ryd( 4f)     0.00066       1.97974
   312    C    7  f(C1)  Ryd( 5f)     0.00014       3.93371
   313    C    7  f(S1)  Ryd( 4f)     0.00042       1.73888
   314    C    7  f(S1)  Ryd( 5f)     0.00012       3.87877
   315    C    7  f(C2)  Ryd( 4f)     0.00110       1.42575
   316    C    7  f(C2)  Ryd( 5f)     0.00002       3.84948
   317    C    7  f(S2)  Ryd( 4f)     0.00035       1.38711
   318    C    7  f(S2)  Ryd( 5f)     0.00001       3.74951
   319    C    7  f(C3)  Ryd( 4f)     0.00105       2.87930
   320    C    7  f(C3)  Ryd( 5f)     0.00009       4.58448
   321    C    7  f(S3)  Ryd( 4f)     0.00193       2.46826
   322    C    7  f(S3)  Ryd( 5f)     0.00009       4.85520
 
   323    C    8  S      Cor( 1S)     1.99947     -10.42038
   324    C    8  S      Val( 2S)     1.10867      -0.31812
   325    C    8  S      Ryd( 3S)     0.00037       1.28993
   326    C    8  S      Ryd( 5S)     0.00003       5.79866
   327    C    8  S      Ryd( 4S)     0.00001       1.38355
   328    C    8  px     Val( 2p)     1.06110      -0.11208
   329    C    8  px     Ryd( 3p)     0.00065       1.26320
   330    C    8  px     Ryd( 5p)     0.00003       1.95776
   331    C    8  px     Ryd( 4p)     0.00001       1.36373
   332    C    8  py     Val( 2p)     1.22733      -0.13718
   333    C    8  py     Ryd( 3p)     0.00162       1.28361
   334    C    8  py     Ryd( 5p)     0.00005       1.90272
   335    C    8  py     Ryd( 4p)     0.00002       1.44102
   336    C    8  pz     Val( 2p)     1.21251      -0.13608
   337    C    8  pz     Ryd( 4p)     0.00017       1.20849
   338    C    8  pz     Ryd( 5p)     0.00002       1.64751
   339    C    8  pz     Ryd( 3p)     0.00000       1.15341
   340    C    8  dxy    Ryd( 4d)     0.00067       1.85586
   341    C    8  dxy    Ryd( 5d)     0.00002       3.50977
   342    C    8  dxy    Ryd( 3d)     0.00002       1.28886
   343    C    8  dxz    Ryd( 4d)     0.00056       1.58238
   344    C    8  dxz    Ryd( 5d)     0.00002       3.28429
   345    C    8  dxz    Ryd( 3d)     0.00000       1.08659
   346    C    8  dyz    Ryd( 4d)     0.00200       1.68098
   347    C    8  dyz    Ryd( 5d)     0.00002       3.54405
   348    C    8  dyz    Ryd( 3d)     0.00001       1.26588
   349    C    8  dx2y2  Ryd( 4d)     0.00168       1.97545
   350    C    8  dx2y2  Ryd( 5d)     0.00005       3.56204
   351    C    8  dx2y2  Ryd( 3d)     0.00002       1.05924
   352    C    8  dz2    Ryd( 4d)     0.00166       1.85686
   353    C    8  dz2    Ryd( 5d)     0.00005       3.64551
   354    C    8  dz2    Ryd( 3d)     0.00001       1.37008
   355    C    8  f(0)   Ryd( 5f)     0.00001       3.74068
   356    C    8  f(0)   Ryd( 4f)     0.00002       2.20907
   357    C    8  f(C1)  Ryd( 4f)     0.00007       3.83771
   358    C    8  f(C1)  Ryd( 5f)     0.00002       4.18093
   359    C    8  f(S1)  Ryd( 5f)     0.00011       4.20123
   360    C    8  f(S1)  Ryd( 4f)     0.00004       3.17615
   361    C    8  f(C2)  Ryd( 5f)     0.00000       3.66900
   362    C    8  f(C2)  Ryd( 4f)     0.00002       2.43144
   363    C    8  f(S2)  Ryd( 5f)     0.00003       3.78156
   364    C    8  f(S2)  Ryd( 4f)     0.00001       2.61071
   365    C    8  f(C3)  Ryd( 5f)     0.00008       3.91366
   366    C    8  f(C3)  Ryd( 4f)     0.00003       3.21034
   367    C    8  f(S3)  Ryd( 5f)     0.00001       3.86042
   368    C    8  f(S3)  Ryd( 4f)     0.00004       2.97238
 
   369    C    9  S      Cor( 1S)     1.99911     -10.52743
   370    C    9  S      Val( 2S)     0.77579      -0.09273
   371    C    9  S      Ryd( 4S)     0.00471       1.94539
   372    C    9  S      Ryd( 3S)     0.00013       1.84908
   373    C    9  S      Ryd( 5S)     0.00002       2.03587
   374    C    9  px     Val( 2p)     0.85549      -0.03008
   375    C    9  px     Ryd( 5p)     0.00420       1.69266
   376    C    9  px     Ryd( 4p)     0.00025       1.52530
   377    C    9  px     Ryd( 3p)     0.00001       1.34808
   378    C    9  py     Val( 2p)     0.77996      -0.00589
   379    C    9  py     Ryd( 4p)     0.01314       1.64206
   380    C    9  py     Ryd( 3p)     0.00012       1.52929
   381    C    9  py     Ryd( 5p)     0.00002       1.70823
   382    C    9  pz     Val( 2p)     0.77618      -0.11225
   383    C    9  pz     Ryd( 5p)     0.00047       1.20134
   384    C    9  pz     Ryd( 3p)     0.00019       0.88134
   385    C    9  pz     Ryd( 4p)     0.00002       1.00976
   386    C    9  dxy    Ryd( 4d)     0.00245       3.05600
   387    C    9  dxy    Ryd( 3d)     0.00024       2.44322
   388    C    9  dxy    Ryd( 5d)     0.00004       3.94810
   389    C    9  dxz    Ryd( 4d)     0.00151       2.23734
   390    C    9  dxz    Ryd( 3d)     0.00007       1.82786
   391    C    9  dxz    Ryd( 5d)     0.00003       2.79312
   392    C    9  dyz    Ryd( 4d)     0.00169       2.33258
   393    C    9  dyz    Ryd( 3d)     0.00006       1.92486
   394    C    9  dyz    Ryd( 5d)     0.00007       2.84168
   395    C    9  dx2y2  Ryd( 4d)     0.00096       3.14227
   396    C    9  dx2y2  Ryd( 3d)     0.00021       2.49490
   397    C    9  dx2y2  Ryd( 5d)     0.00008       4.29338
   398    C    9  dz2    Ryd( 3d)     0.00034       2.84558
   399    C    9  dz2    Ryd( 4d)     0.00026       3.15861
   400    C    9  dz2    Ryd( 5d)     0.00004       3.71600
   401    C    9  f(0)   Ryd( 5f)     0.00012       3.77647
   402    C    9  f(0)   Ryd( 4f)     0.00003       2.21980
   403    C    9  f(C1)  Ryd( 5f)     0.00010       3.91087
   404    C    9  f(C1)  Ryd( 4f)     0.00003       3.12391
   405    C    9  f(S1)  Ryd( 5f)     0.00007       3.87608
   406    C    9  f(S1)  Ryd( 4f)     0.00004       3.55990
   407    C    9  f(C2)  Ryd( 5f)     0.00001       3.77350
   408    C    9  f(C2)  Ryd( 4f)     0.00003       2.70568
   409    C    9  f(S2)  Ryd( 5f)     0.00003       3.75574
   410    C    9  f(S2)  Ryd( 4f)     0.00002       2.68255
   411    C    9  f(C3)  Ryd( 5f)     0.00006       5.02567
   412    C    9  f(C3)  Ryd( 4f)     0.00001       3.99181
   413    C    9  f(S3)  Ryd( 4f)     0.00008       4.93480
   414    C    9  f(S3)  Ryd( 5f)     0.00001       8.08545
 
   415    O   10  S      Cor( 1S)     1.99979     -19.30967
   416    O   10  S      Val( 2S)     1.70708      -0.98251
   417    O   10  S      Ryd( 4S)     0.00037       2.98980
   418    O   10  S      Ryd( 3S)     0.00011       1.60886
   419    O   10  S      Ryd( 5S)     0.00001       8.89832
   420    O   10  px     Val( 2p)     1.86468      -0.32657
   421    O   10  px     Ryd( 4p)     0.00184       1.31863
   422    O   10  px     Ryd( 3p)     0.00010       0.84918
   423    O   10  px     Ryd( 5p)     0.00001       4.52158
   424    O   10  py     Val( 2p)     1.54254      -0.31596
   425    O   10  py     Ryd( 4p)     0.00071       1.73220
   426    O   10  py     Ryd( 3p)     0.00009       0.86035
   427    O   10  py     Ryd( 5p)     0.00006       5.48241
   428    O   10  pz     Val( 2p)     1.50782      -0.28080
   429    O   10  pz     Ryd( 4p)     0.00100       1.09527
   430    O   10  pz     Ryd( 3p)     0.00004       0.67186
   431    O   10  pz     Ryd( 5p)     0.00001       4.15811
   432    O   10  dxy    Ryd( 3d)     0.00536       1.91226
   433    O   10  dxy    Ryd( 4d)     0.00005       2.67064
   434    O   10  dxy    Ryd( 5d)     0.00005       6.29006
   435    O   10  dxz    Ryd( 3d)     0.00028       1.41702
   436    O   10  dxz    Ryd( 4d)     0.00001       2.03981
   437    O   10  dxz    Ryd( 5d)     0.00001       6.27995
   438    O   10  dyz    Ryd( 3d)     0.00641       1.59016
   439    O   10  dyz    Ryd( 4d)     0.00002       2.11957
   440    O   10  dyz    Ryd( 5d)     0.00003       6.14091
   441    O   10  dx2y2  Ryd( 3d)     0.00827       2.08813
   442    O   10  dx2y2  Ryd( 4d)     0.00011       3.58707
   443    O   10  dx2y2  Ryd( 5d)     0.00001       6.40381
   444    O   10  dz2    Ryd( 3d)     0.00295       1.65516
   445    O   10  dz2    Ryd( 4d)     0.00007       2.72421
   446    O   10  dz2    Ryd( 5d)     0.00001       6.28369
   447    O   10  f(0)   Ryd( 4f)     0.00014       3.13902
   448    O   10  f(0)   Ryd( 5f)     0.00001       5.60946
   449    O   10  f(C1)  Ryd( 4f)     0.00003       3.14743
   450    O   10  f(C1)  Ryd( 5f)     0.00001       5.65503
   451    O   10  f(S1)  Ryd( 4f)     0.00014       3.93532
   452    O   10  f(S1)  Ryd( 5f)     0.00001       5.95372
   453    O   10  f(C2)  Ryd( 4f)     0.00030       3.21194
   454    O   10  f(C2)  Ryd( 5f)     0.00001       5.72586
   455    O   10  f(S2)  Ryd( 4f)     0.00002       3.06709
   456    O   10  f(S2)  Ryd( 5f)     0.00000       5.81086
   457    O   10  f(C3)  Ryd( 4f)     0.00044       3.67833
   458    O   10  f(C3)  Ryd( 5f)     0.00003       6.07041
   459    O   10  f(S3)  Ryd( 4f)     0.00030       4.10812
   460    O   10  f(S3)  Ryd( 5f)     0.00002       6.18239
 
   461    O   11  S      Cor( 1S)     1.99978     -19.44570
   462    O   11  S      Val( 2S)     1.66999      -1.01553
   463    O   11  S      Ryd( 4S)     0.00022       1.75566
   464    O   11  S      Ryd( 3S)     0.00009       1.69005
   465    O   11  S      Ryd( 5S)     0.00001      10.20564
   466    O   11  px     Val( 2p)     1.40369      -0.33820
   467    O   11  px     Ryd( 4p)     0.00084       1.23280
   468    O   11  px     Ryd( 3p)     0.00009       1.09647
   469    O   11  px     Ryd( 5p)     0.00003       5.01082
   470    O   11  py     Val( 2p)     1.75576      -0.39392
   471    O   11  py     Ryd( 4p)     0.00080       1.18544
   472    O   11  py     Ryd( 3p)     0.00006       1.14008
   473    O   11  py     Ryd( 5p)     0.00006       4.58230
   474    O   11  pz     Val( 2p)     1.85576      -0.40032
   475    O   11  pz     Ryd( 4p)     0.00122       0.93396
   476    O   11  pz     Ryd( 3p)     0.00002       0.74223
   477    O   11  pz     Ryd( 5p)     0.00000       4.00910
   478    O   11  dxy    Ryd( 3d)     0.00668       2.12343
   479    O   11  dxy    Ryd( 4d)     0.00009       2.33453
   480    O   11  dxy    Ryd( 5d)     0.00005       7.06535
   481    O   11  dxz    Ryd( 3d)     0.00026       1.30688
   482    O   11  dxz    Ryd( 4d)     0.00008       1.85828
   483    O   11  dxz    Ryd( 5d)     0.00002       6.62430
   484    O   11  dyz    Ryd( 3d)     0.00449       1.25514
[...]
 ,0.05026236,-0.09406815,0.02988427,-0.01560202,0.00948641,0.00005721,-
 0.00019168,-0.00405410,0.00131046,-0.00071862,-0.00017172,-0.00010933,
 0.00004324,-0.00035594,0.00033787,-0.00017138,0.00009063,0.00047164,-0
 .00022728,0.00135625,0.00001819,-0.00013474,-0.00271933,0.00078154,-0.
 00051196,-0.00276994,-0.00223701,0.00118327,0.00080119,-0.00051036,0.0
 0030289,0.00059612,0.09367538,-0.04800562,0.10562245,-0.12709340,-0.10
 104644,-0.08028585,0.01194169,0.01710573,0.01905373,0.00132012,0.00026
 425,-0.00166240,0.00021152,-0.00031693,0.00206143,-0.00009741,-0.00024
 154,-0.00004394,-0.00176800,0.00043233,0.00082938,-0.00096843,0.001853
 75,-0.00181389,0.00001534,0.00011851,-0.00038507,-0.00019437,0.0006998
 2,0.00184262,-0.00137128,0.00114073,-0.00189758,-0.00011551,-0.0001580
 9,-0.00010196,-0.01153533,-0.01793304,-0.01143113,0.13384354,-0.095395
 54,-0.17021449,-0.09603885,0.00013103,-0.00443167,-0.01084249,-0.00086
 848,0.00070529,0.00113198,-0.00023311,0.00000025,-0.00197487,0.0000324
 7,0.00010687,0.00005176,0.00163960,-0.00096483,-0.00029297,0.00033275,
 -0.00103023,0.00343988,-0.00011218,0.00001340,0.00021446,0.00108318,-0
 .00111428,-0.00383606,-0.00113471,0.00132049,0.00200542,-0.00076263,0.
 00028942,0.00065768,0.00709264,0.01196642,0.00879588,0.10253421,0.1802
 7438,-0.07453075,-0.09591425,-0.12202255,-0.00823427,-0.01811573,-0.02
 424932,-0.00166602,0.00103321,0.00074331,-0.00034467,0.00009093,-0.001
 54268,0.00009730,0.00011241,0.00007325,0.00146327,-0.00011034,-0.00102
 182,0.00135257,-0.00320665,0.00187427,0.00001472,-0.00031200,-0.000056
 72,-0.00007544,-0.00036322,0.00002389,-0.00055131,0.00109891,-0.000401
 60,0.00014312,-0.00016954,0.00005595,-0.00574736,-0.00694052,-0.005449
 92,0.07842944,0.10966246,0.14128631,-0.06409462,-0.04935419,0.03646633
 ,-0.00645346,-0.01111636,0.01971206,0.00106269,-0.00104532,-0.00181719
 ,0.00039357,0.00000030,0.00273206,0.00013720,0.00018240,-0.00007975,-0
 .00211830,0.00137637,0.00066043,-0.00203060,-0.00055986,-0.00372409,0.
 00000727,-0.00013220,-0.00038711,-0.00151728,0.00035861,0.00424636,0.0
 0036963,-0.00005532,-0.00274522,0.00057779,-0.00032710,-0.00060190,0.0
 0938914,0.02069520,-0.01530352,-0.00423810,-0.01448594,0.00938215,0.06
 851177,-0.05467200,-0.21721987,0.12712179,0.00450217,0.01514370,-0.012
 24430,0.00008699,0.00094185,0.00074465,-0.00028173,-0.00013306,-0.0006
 9574,-0.00008490,-0.00013817,0.00002243,0.00020193,-0.00066351,-0.0005
 5572,0.00133815,0.00004066,-0.00032958,0.00013646,0.00003788,0.0001926
 4,-0.00023775,0.00039283,0.00057479,0.00231983,-0.00052552,0.00040741,
 0.00031493,-0.00043124,-0.00026105,-0.00348168,-0.00857509,0.00493990,
 -0.00421130,-0.01684077,0.01275804,0.05435215,0.22803207,0.03986075,0.
 12209475,-0.13801946,0.00972673,0.01499723,-0.02542940,-0.00180108,0.0
 0083673,0.00076444,-0.00031002,0.00015696,-0.00159133,-0.00003672,-0.0
 0013684,0.00008364,0.00092666,-0.00122020,-0.00097237,0.00346672,0.000
 76840,0.00186514,0.00025855,0.00015911,-0.00007311,0.00032096,0.000232
 15,-0.00016033,-0.00137590,-0.00014054,-0.00029545,0.00018717,0.000012
 16,0.00008370,0.00233786,0.00818078,-0.00583286,-0.00472081,-0.0128692
 1,0.01092775,-0.04868448,-0.13262695,0.15886193,0.00002743,-0.00030398
 ,-0.00009707,-0.00161690,0.00038028,-0.00068497,0.00167260,-0.00093117
 ,0.00002278,-0.00394320,0.02799279,-0.01229936,-0.04264236,0.00919886,
 -0.00283734,-0.00153762,0.00087757,0.00196033,-0.00126790,-0.00050263,
 0.00047314,-0.00012513,-0.00004309,0.00015179,-0.00019735,0.00116567,-
 0.00033080,-0.00007297,-0.00014234,0.00039152,-0.00009054,-0.00026053,
 0.00014938,-0.00001452,-0.00000086,-0.00000328,0.00001929,0.00000215,0
 .00001268,-0.00006644,0.00004007,0.00007304,0.05018687,-0.00007743,0.0
 0018458,0.00013291,0.00145319,-0.00061582,0.00037712,-0.00059335,0.001
 57181,0.00012353,0.00304289,-0.01211058,0.00437185,0.00848440,-0.27618
 293,0.09693076,-0.00042907,-0.00037418,-0.00143454,0.00047747,0.000032
 33,-0.00065768,0.00005989,0.00008217,-0.00008023,0.00212341,-0.0015921
 5,0.00073774,-0.00073615,0.00030776,-0.00005653,-0.00102344,0.00107214
 ,0.00051965,0.00001567,-0.00000487,-0.00002172,0.00001928,-0.00002943,
 -0.00001129,0.00006366,0.00000234,-0.00005473,-0.01218415,0.29912237,0
 .00003745,0.00027967,0.00008674,0.00131785,-0.00046411,0.00073097,-0.0
 0077220,0.00031570,-0.00170452,-0.00190595,-0.00933388,0.00411324,-0.0
 0171650,0.09760749,-0.08688746,-0.00023222,0.00015516,0.00011959,0.000
 15580,-0.00021205,-0.00083700,0.00002497,0.00005728,0.00002438,0.00223
 055,-0.00155756,0.00142379,-0.00030134,0.00027072,-0.00050903,-0.00109
 679,0.00022473,-0.00075599,0.00000156,0.00000222,-0.00000074,-0.000045
 67,-0.00000497,0.00000798,0.00004849,-0.00002816,-0.00003299,0.0022003
 1,-0.10648710,0.09137307,0.00030071,0.00009706,-0.00017673,-0.00175524
 ,0.00128796,-0.00069247,0.00227863,-0.00016842,-0.00020250,-0.02401121
 ,-0.01059794,-0.00901870,-0.21732239,-0.11057579,-0.07210118,-0.000876
 17,0.00010379,0.00230845,-0.00032424,0.00112775,0.00073217,0.00001421,
 0.00015704,0.00014257,-0.00262479,0.00039756,-0.00069857,0.00059132,-0
 .00027330,0.00024670,0.00127068,-0.00009021,-0.00040671,-0.00001421,0.
 00001642,0.00001578,-0.00006257,0.00006753,0.00008329,-0.00002442,-0.0
 0000759,0.00001785,0.00086880,0.00005574,0.00052713,0.23905654,-0.0001
 2604,-0.00010978,0.00002226,0.00035611,-0.00048882,0.00042001,-0.00055
 606,0.00095249,-0.00022125,0.01530318,0.00867423,0.00710374,-0.1098175
 9,-0.11182364,-0.04654119,0.00123560,-0.00101291,-0.00081222,0.0001175
 6,-0.00088353,-0.00003103,0.00004296,-0.00006117,-0.00007847,-0.000342
 89,0.00082894,-0.00008836,0.00027009,-0.00037269,-0.00031093,0.0006087
 6,-0.00030624,-0.00045590,-0.00000054,-0.00000404,0.00001496,0.0000418
 3,-0.00000083,-0.00003367,-0.00002813,0.00001629,-0.00000394,-0.024249
 60,-0.01569667,-0.01082468,0.11656637,0.12157041,-0.00021165,-0.000177
 98,0.00010779,0.00117409,-0.00081146,0.00074181,-0.00078138,0.00032325
 ,-0.00169173,0.00670519,0.00681926,0.00339582,-0.07208429,-0.04782720,
 -0.07655899,-0.00029843,0.00016903,0.00009733,0.00024118,-0.00004379,-
 0.00086485,-0.00003601,-0.00005244,0.00002851,0.00268068,-0.00097413,0
 .00142958,-0.00044202,0.00010164,-0.00049265,-0.00089372,0.00076656,-0
 .00074014,-0.00000054,-0.00000285,-0.00000189,0.00004899,-0.00002869,-
 0.00003374,-0.00001868,0.00004059,0.00000601,0.01077475,0.00665049,0.0
 0364643,0.07884531,0.05185868,0.08005116,-0.00026553,0.00017896,-0.000
 32587,-0.00068370,0.00063970,0.00103089,-0.00328845,0.00224706,-0.0006
 6533,-0.00366808,0.00211048,0.03164594,-0.04783520,0.00007901,0.009283
 79,0.00175843,-0.00095683,0.00063173,-0.00012919,-0.00006355,0.0007625
 4,0.00002300,-0.00005581,-0.00009862,-0.00132312,0.00058035,-0.0008228
 3,0.00034141,-0.00024625,0.00026639,0.00094740,-0.00017582,-0.00057263
 ,-0.00009265,0.00005142,0.00011412,0.00001539,0.00000001,-0.00000389,0
 .00001545,-0.00002036,-0.00001077,-0.00135261,-0.00057955,-0.00069434,
 0.00263106,0.00040428,-0.02567744,0.05297138,0.00019328,-0.00000601,0.
 00017933,0.00060670,0.00009491,-0.00057501,0.00229184,-0.00026330,0.00
 037527,0.00095883,-0.00302523,-0.01721363,0.00021729,-0.04898026,-0.01
 482860,-0.00102671,0.00046990,-0.00027579,-0.00008694,-0.00026779,-0.0
 0040181,-0.00005231,-0.00004446,0.00005590,0.00057949,-0.00047672,0.00
 046078,-0.00024439,-0.00001138,-0.00015257,-0.00014697,0.00074584,0.00
 025726,0.00004895,-0.00003293,-0.00006254,-0.00002051,0.00000334,0.000
 01095,-0.00000062,0.00000211,-0.00000330,-0.00131143,0.00421930,0.0298
 3639,0.00212178,-0.00141875,-0.01653207,-0.00437735,0.04877914,0.00006
 453,-0.00002985,0.00022139,0.00011299,-0.00008362,-0.00019332,0.000583
 02,-0.00029338,0.00147917,0.00010612,-0.00031940,-0.00908630,0.0130669
 5,-0.01685499,-0.31835474,-0.00129386,0.00075597,0.00164967,0.00011927
 ,-0.00005685,-0.00011128,-0.00000194,0.00000409,0.00000959,-0.00085713
 ,0.00047899,0.00036622,0.00031833,-0.00018033,-0.00040519,0.00022309,-
 0.00016895,-0.00069932,0.00004633,-0.00002623,-0.00004327,-0.00001294,
 0.00001810,-0.00000647,-0.00002290,0.00000090,-0.00000532,0.00009779,-
 0.00120698,-0.01070571,0.00053376,0.00004692,-0.00905213,-0.01409807,0
 .01846207,0.34468139,0.00130934,0.00062329,0.00064659,-0.00295354,0.00
 356308,0.00308145,-0.00294739,0.00375359,-0.00266231,0.00546337,-0.003
 62327,-0.01943904,0.00088266,-0.00228084,-0.00038965,-0.05085619,0.013
 33499,0.00746558,0.00458720,-0.00221930,0.02041545,0.00032840,-0.00202
 443,0.00038201,0.00156160,0.00026470,-0.00000060,-0.00026755,-0.000287
 64,-0.00083555,-0.00017591,0.00001911,-0.00004621,0.00003470,-0.000043
 65,-0.00004142,-0.00029722,0.00014225,0.00038897,-0.00000642,-0.000000
 44,0.00001653,0.00023690,-0.00007063,0.00024681,-0.00011688,0.00012294
 ,0.00003422,-0.00015667,0.00024262,0.00074227,0.04336150,0.00058047,0.
 00210260,-0.00042689,0.00351207,0.00154144,-0.00179597,0.00376362,0.00
 226777,0.00121830,-0.00274250,0.00185459,0.01005738,-0.00224292,-0.002
 13394,0.00034842,0.01340653,-0.03423029,-0.01591689,-0.00312725,0.0003
 2731,-0.01117336,-0.00204439,-0.00238422,-0.00007544,0.00029672,0.0018
 9410,-0.00006200,-0.00026342,-0.00058959,0.00045211,0.00000962,-0.0001
 4109,0.00002768,-0.00003943,-0.00002200,0.00002353,-0.00019258,0.00008
 703,0.00023633,0.00032254,-0.00023115,-0.00045708,0.00035550,-0.000083
 71,0.00012365,-0.00031648,0.00025584,-0.00027216,0.00019079,0.00012893
 ,-0.00039859,-0.01178185,0.02895405,-0.00053534,0.00020632,0.00021722,
 0.00167743,-0.00104421,-0.00051046,-0.00238193,0.00106762,-0.00149216,
 0.00476489,-0.00290908,-0.00978324,0.00065285,-0.00021022,0.00048641,0
 .00944147,-0.01697484,-0.35400027,-0.00454983,0.00220124,-0.00743647,-
 0.00016721,0.00021879,0.00007412,0.00088861,-0.00053792,0.00034872,-0.
 00017930,0.00010010,-0.00063116,-0.00030812,0.00016788,-0.00005528,0.0
 0007452,-0.00003858,-0.00000712,0.00006463,-0.00000002,-0.00009552,0.0
 0001498,-0.00004616,-0.00006819,-0.00005299,0.00002486,0.00012081,-0.0
 0002505,0.00001906,0.00013495,-0.00068079,0.00036396,0.00022502,-0.009
 29087,0.01771035,0.37197127,-0.00088602,0.00068646,0.00083580,-0.00491
 988,0.00309595,-0.00110960,0.00029092,0.00000772,-0.00113758,-0.000061
 58,-0.00012520,-0.00030809,0.00000538,-0.00003820,0.00007279,0.0009455
 5,-0.00060736,0.00001822,-0.00016721,-0.00219906,-0.03083370,-0.045927
 33,0.00011499,0.00030245,-0.00035653,0.00027854,0.00021699,0.00006439,
 -0.00004270,0.00001196,-0.00010977,0.00003370,-0.00016749,0.00027697,-
 0.00032534,0.00023980,0.00017273,-0.00011964,-0.00003555,0.00010542,-0
 .00004867,-0.00006814,0.00001488,-0.00000836,0.00000807,0.00000409,0.0
 0000069,0.00000543,-0.00003701,0.00002869,0.00001460,-0.00017892,0.000
 28050,0.00047121,0.05087270,0.00066291,-0.00003285,-0.00044791,0.00308
 864,-0.00069858,0.00058966,0.00006217,0.00037029,0.00058558,-0.0001194
 8,-0.00020421,0.00017043,-0.00004029,-0.00005056,-0.00003518,-0.000563
 71,0.00011440,0.00004757,-0.00104311,-0.00103072,0.01617942,-0.0000427
 3,-0.04608523,-0.01030719,0.00027298,-0.00000207,-0.00011859,-0.000047
 81,0.00000937,-0.00000542,0.00003354,-0.00005010,0.00008833,-0.0003461
 7,-0.00016541,-0.00011641,-0.00000411,-0.00000022,0.00005627,-0.000166
 14,0.00006440,-0.00000210,0.00000738,-0.00000118,-0.00000122,-0.000016
 13,0.00000935,-0.00000593,0.00002740,0.00000059,-0.00000798,0.00024550
 ,0.00017188,-0.00025523,-0.00296456,0.04698025,0.00018902,-0.00010139,
 0.00033452,-0.00130937,0.00069662,0.00080376,0.00036216,-0.00021782,-0
 .00027265,-0.00015038,0.00008598,-0.00012654,0.00001504,-0.00000426,0.
 00003375,0.00121657,-0.00059437,0.00138618,0.00093605,-0.00083961,-0.0
 1147421,-0.00403128,-0.00798567,-0.32459756,0.00006679,-0.00003809,0.0
 0008389,-0.00012947,0.00007038,0.00001192,-0.00017344,0.00009144,-0.00
 007373,-0.00033260,0.00019023,-0.00001541,-0.00007711,0.00005064,-0.00
 003477,-0.00007989,0.00003210,-0.00003206,-0.00000797,0.00000552,0.000
 00292,-0.00000816,0.00000320,0.00000316,-0.00002102,0.00001111,0.00001
 135,-0.00049079,0.00026010,0.00023567,0.00401298,0.00895839,0.35040025
 ,0.00032676,0.00013409,-0.00019997,0.00185556,-0.00118120,0.00151391,-
 0.00211827,0.00054197,-0.00045185,-0.00124254,-0.00059076,-0.00032804,
 -0.00008435,-0.00008248,-0.00016630,-0.00113773,0.00053020,-0.00220856
 ,-0.00405756,0.02947981,0.00974803,-0.04472417,0.01132097,0.00289031,0
 .00024545,-0.00046409,0.00117294,0.00009990,-0.00004927,-0.00059408,-0
 .00024007,0.00019888,-0.00012987,0.00017585,0.00000034,-0.00022548,-0.
 00008234,0.00005246,-0.00012064,0.00007752,-0.00009725,-0.00007640,-0.
 00002560,0.00000090,-0.00002168,-0.00008140,0.00003960,-0.00000033,0.0
 0001919,0.00000865,0.00002139,0.00026102,0.00040401,0.00003961,-0.0012
 8351,-0.00023220,0.00016128,0.05047653,0.00075898,-0.00031032,-0.00016
 627,-0.00063385,0.00140972,-0.00146554,0.00163303,-0.00103544,0.000740
 27,0.00038062,0.00013771,0.00045345,0.00004023,0.00010745,0.00009787,-
 0.00052533,-0.00007526,0.00146556,0.00451087,-0.01162759,-0.00272234,0
 .01011963,-0.28954990,-0.07399765,-0.00018396,0.00021928,-0.00127307,-
 0.00020319,0.00014557,0.00063260,0.00016508,-0.00008493,0.00016354,-0.
 00054722,-0.00007443,0.00034287,-0.00017043,0.00002926,0.00002396,-0.0
 0028712,0.00013151,-0.00000501,0.00000143,0.00000082,0.00001602,0.0000
 5037,-0.00002516,0.00000152,-0.00001452,0.00000154,-0.00001194,-0.0001
 2041,-0.00009231,-0.00000788,-0.00045478,0.00070509,-0.00009980,-0.014
 74154,0.31472607,-0.00036075,0.00028274,0.00031952,0.00094069,-0.00036
 497,0.00047396,-0.00180284,0.00031814,-0.00012702,-0.00021336,0.000212
 12,-0.00073274,-0.00002244,-0.00007015,-0.00000421,0.00031671,-0.00028
 007,0.00006151,0.00099897,0.01195632,0.00287946,0.00200633,-0.07310309
 ,-0.06850872,-0.00012291,-0.00034124,0.00091166,0.00026706,-0.00008269
 ,-0.00038531,-0.00007188,0.00014585,-0.00007841,0.00022772,0.00077998,
 -0.00127823,-0.00007703,-0.00001776,-0.00014804,0.00025730,-0.00010919
 ,0.00006926,0.00001684,-0.00001153,-0.00001339,-0.00000651,0.00000680,
 0.00000307,-0.00000319,0.,0.00000293,-0.00023559,-0.00014665,0.0001313
 6,0.00105681,-0.03144359,-0.00749189,-0.00229999,0.08057960,0.07127597
 ,-0.00053804,0.00019695,0.00004224,0.00247036,-0.00018504,0.00201256,-
 0.00243488,0.00145534,-0.00088037,-0.00021624,0.00104955,-0.00063489,0
 .00006398,0.00013334,-0.00018358,-0.00046592,-0.00017664,-0.00242248,-
 0.02501306,-0.00916827,0.00904918,-0.22017691,-0.10425208,0.07377049,0
 .00058509,0.00010956,0.00171628,0.00022800,-0.00015920,-0.00086692,-0.
 00031164,0.00011227,-0.00020765,0.00022533,-0.00053798,-0.00042614,0.0
 0029801,-0.00015079,-0.00003669,0.00004571,-0.00008543,-0.00008802,-0.
 00008427,0.00004864,-0.00000156,-0.00000858,0.00001120,-0.00002617,0.0
 0001028,-0.00001953,0.00002272,-0.00011365,-0.00035963,0.00005636,0.00
 121705,0.00116830,-0.00015733,0.00148288,0.00025240,-0.00089002,0.2427
 2029,-0.00044916,0.00056529,0.00025840,-0.00079705,0.00082309,-0.00044
 603,0.00030304,-0.00070927,-0.00000946,0.00009382,-0.00091157,0.000029
 40,0.00002404,-0.00003700,0.00008553,0.00107214,-0.00075567,0.00104296
 ,0.01481118,0.00847755,-0.00738196,-0.10313029,-0.10530708,0.04376381,
 -0.00027160,-0.00005718,-0.00020968,0.00006493,-0.00000543,0.00012144,
 0.00014998,-0.00002507,0.00001008,0.00002079,-0.00019159,-0.00006404,0
 .00006067,-0.00008755,0.00007348,0.00014070,-0.00009359,0.00007990,0.0
 0003742,-0.00002257,-0.00000025,0.00001369,-0.00001634,0.00000895,0.00
 000185,0.00001058,-0.00001170,0.00015239,0.00029710,-0.00004266,0.0023
 8930,-0.00008504,-0.00057079,-0.02529430,-0.01472943,0.01166740,0.1106
 1370,0.11283039,-0.00038473,0.00012431,0.00030873,0.00081137,-0.000596
 19,0.00044602,-0.00121402,0.00131502,-0.00013644,-0.00031624,0.0000387
 1,-0.00070943,0.00004256,0.00005537,-0.00000813,0.00036451,-0.00005715
 ,0.00006967,-0.00940125,-0.00748996,0.00372962,0.07247032,0.04403929,-
 0.07729873,0.00024145,0.00034309,0.00084846,0.00019501,-0.00019366,-0.
 00036252,-0.00016291,-0.00002734,-0.00006655,-0.00057009,-0.00066672,-
 0.00121054,0.00022356,-0.00014055,0.00006784,-0.00004182,0.00007353,-0
 .00015320,-0.00000876,0.00000162,0.00000332,0.00001804,-0.00000784,-0.
 00001324,-0.00000210,0.00000282,0.00000280,-0.00000987,0.00027903,0.00
 011664,0.02639134,0.01607112,-0.00920238,-0.00875132,-0.00474256,0.002
 62427,-0.07988720,-0.04839553,0.08092767,0.00019704,-0.00007451,-0.000
 18064,-0.00035039,0.00093419,-0.00189277,-0.00385491,0.00381823,0.0041
 9620,-0.00008150,-0.00038868,-0.00045755,0.00000573,0.00010114,0.00041
 559,0.00054353,-0.00016440,0.00011480,-0.00050996,0.00026594,0.0007667
 2,-0.00003801,-0.00013601,-0.00014961,-0.02317940,0.01246718,-0.052263
 88,0.00543503,-0.00575670,0.00470379,-0.07915444,0.03100438,-0.1088427
 9,0.00001350,-0.00000581,0.00015337,-0.00001366,0.00015275,-0.00002093
 ,-0.00014351,-0.00006360,-0.00002048,0.00001064,-0.00014300,-0.0000107
 5,0.00020604,-0.00000032,-0.00003916,0.00009922,-0.00001136,0.00021371
 ,0.00004367,-0.00001192,0.00002486,-0.00004230,0.00001762,0.00000891,0
 .00005687,-0.00003030,0.00001808,0.00001621,-0.00000725,-0.00000785,0.
 10074059,-0.00007103,0.00011202,0.00009845,0.00100786,0.00101884,0.000
 95533,0.00370408,0.00092681,-0.00226710,-0.00035805,-0.00057540,0.0002
 6197,0.00009456,0.00010691,-0.00024168,-0.00015281,0.00030839,-0.00006
 935,0.00023445,-0.00020550,-0.00038937,-0.00012963,-0.00020947,0.00008
 911,0.01402919,-0.00281616,0.02796539,-0.00574402,-0.00265483,-0.00249
 181,0.02947167,-0.02803431,0.04206768,-0.00001101,-0.00000486,-0.00008
 087,0.00002386,-0.00008184,0.00002025,0.00006637,0.00004635,0.00000171
 ,-0.00012933,0.00011848,0.00002496,-0.00001718,-0.00008698,-0.00001128
 ,-0.00002127,0.00007064,-0.00011625,-0.00001201,0.00002565,-0.00001338
 ,0.00001732,-0.00001945,-0.00000390,0.00002123,-0.00000924,0.00002199,
 -0.00005665,0.00003036,-0.00002638,-0.04196758,0.03193359,-0.00008842,
 0.00004902,0.00011706,0.00011977,-0.00012215,-0.00005310,0.00102200,-0
 .00057151,0.00234952,0.00038553,-0.00018903,-0.00030337,0.00022877,-0.
 00014163,-0.00035430,0.00041627,-0.00023081,0.00001493,-0.00008983,0.0
 0006850,0.00049576,0.00002940,-0.00000653,-0.00003171,-0.00937114,0.00
 501278,0.00348449,0.00506660,-0.00268926,-0.00495583,-0.15088363,0.064
 57130,-0.45732307,0.00001118,-0.00000474,0.00002611,0.00000158,0.00001
 819,0.00000261,-0.00001360,-0.00001192,0.00000420,-0.00000184,0.000146
 27,-0.00020640,-0.00013449,-0.00008615,-0.00019626,-0.00005850,0.00002
 950,0.00001352,0.00002204,-0.00001187,0.00001768,0.00000170,-0.0000000
 4,0.00001384,0.00002702,-0.00002519,0.00001498,0.00003920,-0.00000925,
 0.00001613,0.15327037,-0.06579548,0.45685323\\0.00001050,-0.00000574,-
 0.00002197,0.00007346,-0.00004416,0.00000141,-0.00010143,0.00003334,0.
 00000504,0.00012366,-0.00006639,0.00013442,-0.00000449,0.00000298,-0.0
 0001839,-0.00012269,0.00006392,-0.00009305,0.00002160,-0.00001097,0.00
 003996,-0.00002465,0.00001452,-0.00000307,0.00009904,0.00004019,-0.000
 10615,-0.00008823,0.00001400,0.00010219,0.00000589,-0.00003491,-0.0000
 6210,-0.00000667,0.00000338,0.00000870,0.00000706,0.00000717,0.0000103
 7,-0.00000242,-0.00001017,0.00001247,0.00000165,-0.00000539,0.00000468
 ,0.00000350,0.00000144,0.00000454,-0.00000876,0.00000377,-0.00001069,0
 .00002882,-0.00001428,-0.00000081,0.00000435,-0.00000293,-0.00002092,-
 0.00000569,-0.00000332,0.00000564,0.00000009,0.00000665,0.00000578,-0.
 00001460,0.00000692,0.00000194\\\@
 The archive entry for this job was punched.


 IN NATURE THERE ARE NEITHER REWARDS OR
 PUNISHMENTS -- THERE ARE CONSEQUENCES.

                            -- ROBERT GREEN INGERSOLL
 Job cpu time:       1 days  6 hours 22 minutes 29.6 seconds.
 Elapsed time:       0 days  1 hours 31 minutes  9.2 seconds.
 File lengths (MBytes):  RWF=    752 Int=      0 D2E=      0 Chk=     52 Scr=      1
 Normal termination of Gaussian 16 at Tue Mar  4 20:05:11 2025.
