 Entering Gaussian System, Link 0=g16
 Initial command:
 /usr/local/gaussian16c01/g16/l1.exe "/scr/dhuang/Gau-279359.inp" -scrdir="/scr/dhuang/"
 Entering Link 1 = /usr/local/gaussian16c01/g16/l1.exe PID=    279360.
  
 Copyright (c) 1988-2019, Gaussian, Inc.  All Rights Reserved.
  
 This is part of the Gaussian(R) 16 program.  It is based on
 the Gaussian(R) 09 system (copyright 2009, Gaussian, Inc.),
 the Gaussian(R) 03 system (copyright 2003, Gaussian, Inc.),
 the Gaussian(R) 98 system (copyright 1998, Gaussian, Inc.),
 the Gaussian(R) 94 system (copyright 1995, Gaussian, Inc.),
 the Gaussian 92(TM) system (copyright 1992, Gaussian, Inc.),
 the Gaussian 90(TM) system (copyright 1990, Gaussian, Inc.),
 the Gaussian 88(TM) system (copyright 1988, Gaussian, Inc.),
 the Gaussian 86(TM) system (copyright 1986, Carnegie Mellon
 University), and the Gaussian 82(TM) system (copyright 1983,
 Carnegie Mellon University). Gaussian is a federally registered
 trademark of Gaussian, Inc.
  
 This software contains proprietary and confidential information,
 including trade secrets, belonging to Gaussian, Inc.
  
 This software is provided under written license and may be
 used, copied, transmitted, or stored only in accord with that
 written license.
  
 The following legend is applicable only to US Government
 contracts under FAR:
  
                    RESTRICTED RIGHTS LEGEND
  
 Use, reproduction and disclosure by the US Government is
 subject to restrictions as set forth in subparagraphs (a)
 and (c) of the Commercial Computer Software - Restricted
 Rights clause in FAR 52.227-19.
  
 Gaussian, Inc.
 340 Quinnipiac St., Bldg. 40, Wallingford CT 06492
  
  
 ---------------------------------------------------------------
 Warning -- This program may not be used in any manner that
 competes with the business of Gaussian, Inc. or will provide
 assistance to any competitor of Gaussian, Inc.  The licensee
 of this program is prohibited from giving any competitor of
 Gaussian, Inc. access to this program.  By using this program,
 the user acknowledges that Gaussian, Inc. is engaged in the
 business of creating and licensing software in the field of
 computational chemistry and represents and warrants to the
 licensee that it is not a competitor of Gaussian, Inc. and that
 it will not use this program in any manner prohibited above.
 ---------------------------------------------------------------
  

 Cite this work as:
 Gaussian 16, Revision C.01,
 M. J. Frisch, G. W. Trucks, H. B. Schlegel, G. E. Scuseria, 
 M. A. Robb, J. R. Cheeseman, G. Scalmani, V. Barone, 
 G. A. Petersson, H. Nakatsuji, X. Li, M. Caricato, A. V. Marenich, 
 J. Bloino, B. G. Janesko, R. Gomperts, B. Mennucci, H. P. Hratchian, 
 J. V. Ortiz, A. F. Izmaylov, J. L. Sonnenberg, D. Williams-Young, 
 F. Ding, F. Lipparini, F. Egidi, J. Goings, B. Peng, A. Petrone, 
 T. Henderson, D. Ranasinghe, V. G. Zakrzewski, J. Gao, N. Rega, 
 G. Zheng, W. Liang, M. Hada, M. Ehara, K. Toyota, R. Fukuda, 
 J. Hasegawa, M. Ishida, T. Nakajima, Y. Honda, O. Kitao, H. Nakai, 
 T. Vreven, K. Throssell, J. A. Montgomery, Jr., J. E. Peralta, 
 F. Ogliaro, M. J. Bearpark, J. J. Heyd, E. N. Brothers, K. N. Kudin, 
 V. N. Staroverov, T. A. Keith, R. Kobayashi, J. Normand, 
 K. Raghavachari, A. P. Rendell, J. C. Burant, S. S. Iyengar, 
 J. Tomasi, M. Cossi, J. M. Millam, M. Klene, C. Adamo, R. Cammi, 
 J. W. Ochterski, R. L. Martin, K. Morokuma, O. Farkas, 
 J. B. Foresman, and D. J. Fox, Gaussian, Inc., Wallingford CT, 2019.
 
 ******************************************
 Gaussian 16:  ES64L-G16RevC.01  3-Jul-2019
                 4-Mar-2025 
 ******************************************
 %nprocshared=20
 Will use up to   20 processors via shared memory.
 %mem=10000MW
 %chk=13.chk
 ------------------------------------
 # opt freq m062x/aug-cc-pvtz pop=nbo
 ------------------------------------
 1/18=20,19=15,26=3,38=1/1,3;
 2/9=110,12=2,17=6,18=5,40=1/2;
 3/5=16,6=1,7=10,11=2,25=1,30=1,71=1,74=-55/1,2,3;
 4//1;
 5/5=2,38=5/2;
 6/7=2,8=2,9=2,10=2,28=1,40=1/1,7;
 7//1,2,3,16;
 1/18=20,19=15,26=3/3(2);
 2/9=110/2;
 99//99;
 2/9=110/2;
 3/5=16,6=1,7=10,11=2,25=1,30=1,71=1,74=-55/1,2,3;
 4/5=5,16=3,69=1/1;
 5/5=2,38=5/2;
 7//1,2,3,16;
 1/18=20,19=15,26=3/3(-5);
 2/9=110/2;
 6/7=2,8=2,9=2,10=2,19=2,28=1,40=1/1,7;
 99/9=1/99;
 --
 13
 --
 Symbolic Z-matrix:
 Charge =  0 Multiplicity = 1
 C                    -1.71457   1.81727  -0.41975 
 N                    -1.69446   0.75215  -1.43883 
 C                    -1.66848  -0.49415  -1.18261 
 C                    -1.65796  -1.09594  -2.38672 
 C                    -1.67911  -0.13606  -3.32452 
 C                    -1.70222   1.03536  -2.67572 
 C                    -1.6528   -1.1685    0.0018 
 O                    -1.66271  -0.60086   1.07791 
 O                    -1.6246   -2.5279    0.0029 
 H                    -1.73551   2.8334   -0.87426 
 H                    -2.62606   1.73894   0.21568 
 H                    -0.79923   1.77566   0.2135 
 H                    -1.63619  -2.17191  -2.60178 
 H                    -1.67784  -0.28073  -4.41206 
 H                    -1.72371   2.05191  -3.08263 
 H                    -1.6162   -2.87024   0.90956 
 

 GradGradGradGradGradGradGradGradGradGradGradGradGradGradGradGradGradGrad
 Berny optimization.
 Initialization pass.
                           ----------------------------
                           !    Initial Parameters    !
                           ! (Angstroms and Degrees)  !
 --------------------------                            --------------------------
 ! Name  Definition              Value          Derivative Info.                !
 --------------------------------------------------------------------------------
 ! R1    R(1,2)                  1.4742         estimate D2E/DX2                !
 ! R2    R(1,10)                 1.1133         estimate D2E/DX2                !
 ! R3    R(1,11)                 1.1139         estimate D2E/DX2                !
 ! R4    R(1,12)                 1.1138         estimate D2E/DX2                !
 ! R5    R(2,3)                  1.2726         estimate D2E/DX2                !
 ! R6    R(2,6)                  1.2689         estimate D2E/DX2                !
 ! R7    R(3,4)                  1.3462         estimate D2E/DX2                !
 ! R8    R(3,7)                  1.363          estimate D2E/DX2                !
 ! R9    R(4,5)                  1.3421         estimate D2E/DX2                !
 ! R10   R(4,13)                 1.0975         estimate D2E/DX2                !
 ! R11   R(5,6)                  1.3393         estimate D2E/DX2                !
 ! R12   R(5,14)                 1.0971         estimate D2E/DX2                !
 ! R13   R(6,15)                 1.0952         estimate D2E/DX2                !
 ! R14   R(7,8)                  1.2167         estimate D2E/DX2                !
 ! R15   R(7,9)                  1.3597         estimate D2E/DX2                !
 ! R16   R(9,16)                 0.9692         estimate D2E/DX2                !
 ! A1    A(2,1,10)             112.1764         estimate D2E/DX2                !
 ! A2    A(2,1,11)             110.7746         estimate D2E/DX2                !
 ! A3    A(2,1,12)             110.7818         estimate D2E/DX2                !
 ! A4    A(10,1,11)            106.3599         estimate D2E/DX2                !
 ! A5    A(10,1,12)            106.3591         estimate D2E/DX2                !
 ! A6    A(11,1,12)            110.2139         estimate D2E/DX2                !
 ! A7    A(1,2,3)              124.6556         estimate D2E/DX2                !
 ! A8    A(1,2,6)              120.8284         estimate D2E/DX2                !
 ! A9    A(3,2,6)              114.5161         estimate D2E/DX2                !
 ! A10   A(2,3,4)              104.9438         estimate D2E/DX2                !
 ! A11   A(2,3,7)              131.2769         estimate D2E/DX2                !
 ! A12   A(4,3,7)              123.7794         estimate D2E/DX2                !
 ! A13   A(3,4,5)              107.7679         estimate D2E/DX2                !
 ! A14   A(3,4,13)             127.8595         estimate D2E/DX2                !
 ! A15   A(5,4,13)             124.3726         estimate D2E/DX2                !
 ! A16   A(4,5,6)              106.6979         estimate D2E/DX2                !
 ! A17   A(4,5,14)             126.7494         estimate D2E/DX2                !
 ! A18   A(6,5,14)             126.5527         estimate D2E/DX2                !
 ! A19   A(2,6,5)              106.0743         estimate D2E/DX2                !
 ! A20   A(2,6,15)             124.7122         estimate D2E/DX2                !
 ! A21   A(5,6,15)             129.2135         estimate D2E/DX2                !
 ! A22   A(3,7,8)              122.5235         estimate D2E/DX2                !
 ! A23   A(3,7,9)              119.7083         estimate D2E/DX2                !
 ! A24   A(8,7,9)              117.7682         estimate D2E/DX2                !
 ! A25   A(7,9,16)             110.7375         estimate D2E/DX2                !
 ! D1    D(10,1,2,3)           179.964          estimate D2E/DX2                !
 ! D2    D(10,1,2,6)            -0.0285         estimate D2E/DX2                !
 ! D3    D(11,1,2,3)           -61.3538         estimate D2E/DX2                !
 ! D4    D(11,1,2,6)           118.6537         estimate D2E/DX2                !
 ! D5    D(12,1,2,3)            61.2779         estimate D2E/DX2                !
 ! D6    D(12,1,2,6)          -118.7146         estimate D2E/DX2                !
 ! D7    D(1,2,3,4)           -179.9898         estimate D2E/DX2                !
 ! D8    D(1,2,3,7)              0.0079         estimate D2E/DX2                !
 ! D9    D(6,2,3,4)              0.0032         estimate D2E/DX2                !
 ! D10   D(6,2,3,7)           -179.9992         estimate D2E/DX2                !
 ! D11   D(1,2,6,5)            179.9893         estimate D2E/DX2                !
 ! D12   D(1,2,6,15)            -0.0064         estimate D2E/DX2                !
 ! D13   D(3,2,6,5)             -0.0039         estimate D2E/DX2                !
 ! D14   D(3,2,6,15)          -179.9996         estimate D2E/DX2                !
 ! D15   D(2,3,4,5)             -0.0011         estimate D2E/DX2                !
 ! D16   D(2,3,4,13)           179.9998         estimate D2E/DX2                !
 ! D17   D(7,3,4,5)           -179.999          estimate D2E/DX2                !
 ! D18   D(7,3,4,13)             0.0019         estimate D2E/DX2                !
 ! D19   D(2,3,7,8)             -0.0033         estimate D2E/DX2                !
 ! D20   D(2,3,7,9)           -179.9855         estimate D2E/DX2                !
 ! D21   D(4,3,7,8)            179.994          estimate D2E/DX2                !
 ! D22   D(4,3,7,9)              0.0118         estimate D2E/DX2                !
 ! D23   D(3,4,5,6)             -0.0011         estimate D2E/DX2                !
 ! D24   D(3,4,5,14)          -179.9971         estimate D2E/DX2                !
 ! D25   D(13,4,5,6)           179.998          estimate D2E/DX2                !
 ! D26   D(13,4,5,14)            0.0021         estimate D2E/DX2                !
 ! D27   D(4,5,6,2)              0.0029         estimate D2E/DX2                !
 ! D28   D(4,5,6,15)           179.9984         estimate D2E/DX2                !
 ! D29   D(14,5,6,2)           179.9989         estimate D2E/DX2                !
 ! D30   D(14,5,6,15)           -0.0057         estimate D2E/DX2                !
 ! D31   D(3,7,9,16)           180.0            estimate D2E/DX2                !
 ! D32   D(8,7,9,16)             0.017          estimate D2E/DX2                !
 --------------------------------------------------------------------------------
 Trust Radius=3.00D-01 FncErr=1.00D-07 GrdErr=1.00D-06 EigMax=2.50D+02 EigMin=1.00D-04
 Number of steps in this run=     83 maximum allowed number of steps=    100.
 GradGradGradGradGradGradGradGradGradGradGradGradGradGradGradGradGradGrad

                          Input orientation:                          
 ---------------------------------------------------------------------
 Center     Atomic      Atomic             Coordinates (Angstroms)
 Number     Number       Type             X           Y           Z
 ---------------------------------------------------------------------
      1          6           0       -1.714568    1.817271   -0.419752
      2          7           0       -1.694462    0.752152   -1.438831
      3          6           0       -1.668484   -0.494146   -1.182609
      4          6           0       -1.657955   -1.095944   -2.386717
      5          6           0       -1.679110   -0.136061   -3.324524
      6          6           0       -1.702217    1.035364   -2.675722
      7          6           0       -1.652800   -1.168500    0.001800
      8          8           0       -1.662715   -0.600863    1.077915
      9          8           0       -1.624600   -2.527900    0.002900
     10          1           0       -1.735515    2.833397   -0.874259
     11          1           0       -2.626061    1.738943    0.215680
     12          1           0       -0.799232    1.775664    0.213496
     13          1           0       -1.636187   -2.171908   -2.601776
     14          1           0       -1.677842   -0.280735   -4.412057
     15          1           0       -1.723711    2.051905   -3.082626
     16          1           0       -1.616201   -2.870236    0.909557
 ---------------------------------------------------------------------
                    Distance matrix (angstroms):
                    1          2          3          4          5
     1  C    0.000000
     2  N    1.474247   0.000000
     3  C    2.434486   1.272628   0.000000
     4  C    3.515534   2.077325   1.346160   0.000000
     5  C    3.500637   2.084465   2.171666   1.342126   0.000000
     6  C    2.387662   1.268924   2.137738   2.151269   1.339297
     7  C    3.016016   2.401261   1.363020   2.389625   3.482966
     8  O    2.844831   2.857563   2.263049   3.499829   4.426937
     9  O    4.366605   3.583603   2.354467   2.786016   4.098245
    10  H    1.113340   2.156851   3.342471   4.211088   3.850281
    11  H    1.113881   2.139869   2.803365   3.968159   4.116479
    12  H    1.113810   2.139906   2.802988   3.967952   4.116608
    13  H    4.547628   3.147374   2.197718   1.097462   2.160759
    14  H    4.510153   3.147572   3.236505   2.183338   1.097115
    15  H    2.673207   2.095776   3.177340   3.224526   2.201750
    16  H    4.873342   4.317725   3.166339   3.743699   5.040547
                    6          7          8          9         10
     6  C    0.000000
     7  C    3.468225   0.000000
     8  O    4.094946   1.216689   0.000000
     9  O    4.458463   1.359693   2.206939   0.000000
    10  H    2.545446   4.097499   3.951003   5.433711   0.000000
    11  H    3.115881   3.073469   2.673234   4.387955   1.782938
    12  H    3.116248   3.072701   2.672209   4.387054   1.782873
    13  H    3.208804   2.790289   4.001126   2.628917   5.295966
    14  H    2.178893   4.502321   5.499318   4.954234   4.713508
    15  H    1.095166   4.459790   4.934673   5.523125   2.342595
    16  H    5.302390   1.929059   2.276085   0.969171   5.977263
                   11         12         13         14         15
    11  H    0.000000
    12  H    1.827200   0.000000
    13  H    4.920637   4.920322   0.000000
    14  H    5.137526   5.137750   2.618280   0.000000
    15  H    3.433803   3.434442   4.251997   2.685275   0.000000
    16  H    4.769258   4.768262   3.580157   5.918522   6.338499
                   16
    16  H    0.000000
 Stoichiometry    C6H7NO2
 Framework group  C1[X(C6H7NO2)]
 Deg. of freedom    42
 Full point group                 C1      NOp   1
 Largest Abelian subgroup         C1      NOp   1
 Largest concise Abelian subgroup C1      NOp   1
                         Standard orientation:                         
 ---------------------------------------------------------------------
 Center     Atomic      Atomic             Coordinates (Angstroms)
 Number     Number       Type             X           Y           Z
 ---------------------------------------------------------------------
      1          6           0       -0.868463    1.994670   -0.000116
      2          7           0       -0.936854    0.522010    0.000050
      3          6           0        0.075293   -0.249444    0.000083
      4          6           0       -0.437053   -1.494293    0.000015
      5          6           0       -1.774851   -1.386590   -0.000033
      6          6           0       -2.055480   -0.077024    0.000033
      7          6           0        1.411382    0.020168    0.000126
      8          8           0        1.849681    1.155169    0.000079
      9          8           0        2.305514   -1.004182   -0.000144
     10          1           0       -1.878840    2.462286   -0.000764
     11          1           0       -0.351349    2.366270    0.913797
     12          1           0       -0.350286    2.366119   -0.913403
     13          1           0        0.107854   -2.446921    0.000013
     14          1           0       -2.499699   -2.210154   -0.000047
     15          1           0       -3.030251    0.422186   -0.000002
     16          1           0        3.214021   -0.666681   -0.000077
 ---------------------------------------------------------------------
 Rotational constants (GHZ):           2.9693911           1.6446812           1.0659481
 Standard basis: Aug-CC-pVTZ (5D, 7F)
 There are   670 symmetry adapted cartesian basis functions of A   symmetry.
 There are   575 symmetry adapted basis functions of A   symmetry.
   575 basis functions,   837 primitive gaussians,   670 cartesian basis functions
    33 alpha electrons       33 beta electrons
       nuclear repulsion energy       451.6892622310 Hartrees.
 NAtoms=   16 NActive=   16 NUniq=   16 SFac= 1.00D+00 NAtFMM=   60 NAOKFM=F Big=F
 Integral buffers will be    131072 words long.
 Raffenetti 2 integral format.
 Two-electron integral symmetry is turned on.
 One-electron integrals computed using PRISM.
 NBasis=   575 RedAO= T EigKep=  1.34D-06  NBF=   575
 NBsUse=   575 1.00D-06 EigRej= -1.00D+00 NBFU=   575
 ExpMin= 2.53D-02 ExpMax= 1.53D+04 ExpMxC= 5.22D+02 IAcc=3 IRadAn=         5 AccDes= 0.00D+00
 Harris functional with IExCor= 1009 and IRadAn=       5 diagonalized for initial guess.
 HarFok:  IExCor= 1009 AccDes= 0.00D+00 IRadAn=         5 IDoV= 1 UseB2=F ITyADJ=14
 ICtDFT=  3500011 ScaDFX=  1.000000  1.000000  1.000000  1.000000
 FoFCou: FMM=F IPFlag=           0 FMFlag=      100000 FMFlg1=           0
         NFxFlg=           0 DoJE=T BraDBF=F KetDBF=T FulRan=T
         wScrn=  0.000000 ICntrl=       500 IOpCl=  0 I1Cent=   200000004 NGrid=           0
         NMat0=    1 NMatS0=      1 NMatT0=    0 NMatD0=    1 NMtDS0=    0 NMtDT0=    0
 Petite list used in FoFCou.
 Requested convergence on RMS density matrix=1.00D-08 within 128 cycles.
 Requested convergence on MAX density matrix=1.00D-06.
 Requested convergence on             energy=1.00D-06.
 No special actions if energy rises.
 SCF Done:  E(RM062X) =  -438.015075405     A.U. after   14 cycles
            NFock= 14  Conv=0.29D-08     -V/T= 2.0029

 **********************************************************************

            Population analysis using the SCF Density.

 **********************************************************************

 Orbital symmetries:
       Occupied  (A) (A) (A) (A) (A) (A) (A) (A) (A) (A) (A) (A)
                 (A) (A) (A) (A) (A) (A) (A) (A) (A) (A) (A) (A)
                 (A) (A) (A) (A) (A) (A) (A) (A) (A)
       Virtual   (A) (A) (A) (A) (A) (A) (A) (A) (A) (A) (A) (A)
                 (A) (A) (A) (A) (A) (A) (A) (A) (A) (A) (A) (A)
                 (A) (A) (A) (A) (A) (A) (A) (A) (A) (A) (A) (A)
                 (A) (A) (A) (A) (A) (A) (A) (A) (A) (A) (A) (A)
                 (A) (A) (A) (A) (A) (A) (A) (A) (A) (A) (A) (A)
                 (A) (A) (A) (A) (A) (A) (A) (A) (A) (A) (A) (A)
                 (A) (A) (A) (A) (A) (A) (A) (A) (A) (A) (A) (A)
                 (A) (A) (A) (A) (A) (A) (A) (A) (A) (A) (A) (A)
                 (A) (A) (A) (A) (A) (A) (A) (A) (A) (A) (A) (A)
                 (A) (A) (A) (A) (A) (A) (A) (A) (A) (A) (A) (A)
                 (A) (A) (A) (A) (A) (A) (A) (A) (A) (A) (A) (A)
                 (A) (A) (A) (A) (A) (A) (A) (A) (A) (A) (A) (A)
                 (A) (A) (A) (A) (A) (A) (A) (A) (A) (A) (A) (A)
                 (A) (A) (A) (A) (A) (A) (A) (A) (A) (A) (A) (A)
                 (A) (A) (A) (A) (A) (A) (A) (A) (A) (A) (A) (A)
                 (A) (A) (A) (A) (A) (A) (A) (A) (A) (A) (A) (A)
                 (A) (A) (A) (A) (A) (A) (A) (A) (A) (A) (A) (A)
                 (A) (A) (A) (A) (A) (A) (A) (A) (A) (A) (A) (A)
                 (A) (A) (A) (A) (A) (A) (A) (A) (A) (A) (A) (A)
                 (A) (A) (A) (A) (A) (A) (A) (A) (A) (A) (A) (A)
                 (A) (A) (A) (A) (A) (A) (A) (A) (A) (A) (A) (A)
                 (A) (A) (A) (A) (A) (A) (A) (A) (A) (A) (A) (A)
                 (A) (A) (A) (A) (A) (A) (A) (A) (A) (A) (A) (A)
                 (A) (A) (A) (A) (A) (A) (A) (A) (A) (A) (A) (A)
                 (A) (A) (A) (A) (A) (A) (A) (A) (A) (A) (A) (A)
                 (A) (A) (A) (A) (A) (A) (A) (A) (A) (A) (A) (A)
                 (A) (A) (A) (A) (A) (A) (A) (A) (A) (A) (A) (A)
                 (A) (A) (A) (A) (A) (A) (A) (A) (A) (A) (A) (A)
                 (A) (A) (A) (A) (A) (A) (A) (A) (A) (A) (A) (A)
                 (A) (A) (A) (A) (A) (A) (A) (A) (A) (A) (A) (A)
                 (A) (A) (A) (A) (A) (A) (A) (A) (A) (A) (A) (A)
                 (A) (A) (A) (A) (A) (A) (A) (A) (A) (A) (A) (A)
                 (A) (A) (A) (A) (A) (A) (A) (A) (A) (A) (A) (A)
                 (A) (A) (A) (A) (A) (A) (A) (A) (A) (A) (A) (A)
                 (A) (A) (A) (A) (A) (A) (A) (A) (A) (A) (A) (A)
                 (A) (A) (A) (A) (A) (A) (A) (A) (A) (A) (A) (A)
                 (A) (A) (A) (A) (A) (A) (A) (A) (A) (A) (A) (A)
                 (A) (A) (A) (A) (A) (A) (A) (A) (A) (A) (A) (A)
                 (A) (A) (A) (A) (A) (A) (A) (A) (A) (A) (A) (A)
                 (A) (A) (A) (A) (A) (A) (A) (A) (A) (A) (A) (A)
                 (A) (A) (A) (A) (A) (A) (A) (A) (A) (A) (A) (A)
                 (A) (A) (A) (A) (A) (A) (A) (A) (A) (A) (A) (A)
                 (A) (A) (A) (A) (A) (A) (A) (A) (A) (A) (A) (A)
                 (A) (A) (A) (A) (A) (A) (A) (A) (A) (A) (A) (A)
                 (A) (A) (A) (A) (A) (A) (A) (A) (A) (A) (A) (A)
                 (A) (A)
 The electronic state is 1-A.
 Alpha  occ. eigenvalues --  -19.66187 -19.59980 -14.81757 -10.66965 -10.59013
 Alpha  occ. eigenvalues --  -10.56569 -10.55485 -10.52457 -10.51818  -1.22882
 Alpha  occ. eigenvalues --   -1.17518  -1.12449  -0.93019  -0.89126  -0.79748
 Alpha  occ. eigenvalues --   -0.76017  -0.68689  -0.63970  -0.63167  -0.58366
 Alpha  occ. eigenvalues --   -0.56857  -0.55376  -0.52161  -0.49833  -0.49290
 Alpha  occ. eigenvalues --   -0.47430  -0.46882  -0.45421  -0.43954  -0.39248
 Alpha  occ. eigenvalues --   -0.34898  -0.31879  -0.29337
 Alpha virt. eigenvalues --   -0.00791   0.00100   0.00262   0.00651   0.01874
 Alpha virt. eigenvalues --    0.01922   0.02760   0.03223   0.04872   0.05306
 Alpha virt. eigenvalues --    0.05523   0.06096   0.07052   0.07087   0.07543
 Alpha virt. eigenvalues --    0.08485   0.08599   0.08641   0.09141   0.09565
 Alpha virt. eigenvalues --    0.09961   0.10079   0.10716   0.11180   0.11446
 Alpha virt. eigenvalues --    0.11538   0.12113   0.14093   0.14415   0.15025
 Alpha virt. eigenvalues --    0.15050   0.16248   0.16381   0.17092   0.17247
 Alpha virt. eigenvalues --    0.18289   0.18414   0.19870   0.19872   0.20039
 Alpha virt. eigenvalues --    0.20369   0.21978   0.22275   0.22487   0.22591
 Alpha virt. eigenvalues --    0.23996   0.24273   0.24809   0.24983   0.25504
 Alpha virt. eigenvalues --    0.25545   0.26716   0.26785   0.27152   0.27554
 Alpha virt. eigenvalues --    0.28022   0.28180   0.29309   0.30310   0.30698
 Alpha virt. eigenvalues --    0.30864   0.31062   0.31933   0.32646   0.33445
 Alpha virt. eigenvalues --    0.33471   0.34052   0.34673   0.35858   0.36021
 Alpha virt. eigenvalues --    0.36431   0.37235   0.37381   0.37960   0.38455
 Alpha virt. eigenvalues --    0.38618   0.39574   0.40393   0.40711   0.41349
 Alpha virt. eigenvalues --    0.41752   0.42023   0.42206   0.42346   0.43057
 Alpha virt. eigenvalues --    0.43423   0.43682   0.44499   0.45475   0.45849
 Alpha virt. eigenvalues --    0.46655   0.47241   0.47609   0.48039   0.49062
 Alpha virt. eigenvalues --    0.50171   0.51208   0.52212   0.52388   0.53329
 Alpha virt. eigenvalues --    0.55031   0.55238   0.55901   0.56234   0.56708
 Alpha virt. eigenvalues --    0.56804   0.58262   0.58317   0.59621   0.60497
 Alpha virt. eigenvalues --    0.61540   0.62866   0.62867   0.63761   0.64329
 Alpha virt. eigenvalues --    0.65987   0.66728   0.68005   0.68319   0.68719
 Alpha virt. eigenvalues --    0.69611   0.69876   0.70757   0.71297   0.72549
 Alpha virt. eigenvalues --    0.72868   0.73788   0.74264   0.75036   0.76469
 Alpha virt. eigenvalues --    0.76499   0.76669   0.77015   0.77724   0.78892
 Alpha virt. eigenvalues --    0.79277   0.80021   0.80914   0.81129   0.81319
 Alpha virt. eigenvalues --    0.82256   0.83040   0.83060   0.84824   0.85810
 Alpha virt. eigenvalues --    0.85902   0.86555   0.87390   0.87970   0.88196
 Alpha virt. eigenvalues --    0.88758   0.88901   0.89650   0.90962   0.91652
 Alpha virt. eigenvalues --    0.92096   0.92869   0.93784   0.94721   0.95181
 Alpha virt. eigenvalues --    0.95569   0.96708   0.97731   0.98702   0.99107
 Alpha virt. eigenvalues --    1.00361   1.00542   1.01109   1.01886   1.01903
 Alpha virt. eigenvalues --    1.02619   1.03517   1.05188   1.05195   1.05784
 Alpha virt. eigenvalues --    1.06545   1.06898   1.07008   1.08443   1.09605
 Alpha virt. eigenvalues --    1.10142   1.10860   1.11052   1.11242   1.12583
 Alpha virt. eigenvalues --    1.13012   1.14329   1.15316   1.16082   1.17807
 Alpha virt. eigenvalues --    1.20562   1.20709   1.22190   1.22885   1.23094
 Alpha virt. eigenvalues --    1.24230   1.24255   1.25637   1.25793   1.26568
 Alpha virt. eigenvalues --    1.27682   1.28604   1.30237   1.30661   1.30876
 Alpha virt. eigenvalues --    1.32047   1.32268   1.33723   1.33861   1.34789
 Alpha virt. eigenvalues --    1.35384   1.36037   1.36146   1.38329   1.38899
 Alpha virt. eigenvalues --    1.40595   1.40973   1.42557   1.44077   1.45388
 Alpha virt. eigenvalues --    1.46746   1.46854   1.48341   1.49312   1.50089
 Alpha virt. eigenvalues --    1.50756   1.51486   1.52922   1.53105   1.54233
 Alpha virt. eigenvalues --    1.55279   1.55346   1.55608   1.56155   1.57093
 Alpha virt. eigenvalues --    1.57235   1.61435   1.64054   1.64062   1.65129
 Alpha virt. eigenvalues --    1.66194   1.66395   1.67847   1.68177   1.69017
 Alpha virt. eigenvalues --    1.69841   1.71992   1.72321   1.72505   1.75917
 Alpha virt. eigenvalues --    1.77487   1.78013   1.79293   1.80453   1.80474
 Alpha virt. eigenvalues --    1.81659   1.82891   1.84367   1.84467   1.86835
 Alpha virt. eigenvalues --    1.88859   1.88920   1.89527   1.90148   1.92514
 Alpha virt. eigenvalues --    1.93011   1.94463   1.95723   1.95791   1.96315
 Alpha virt. eigenvalues --    2.00922   2.01055   2.01768   2.01907   2.03036
 Alpha virt. eigenvalues --    2.04483   2.04920   2.08102   2.08552   2.09747
 Alpha virt. eigenvalues --    2.12716   2.12843   2.15107   2.16372   2.16640
 Alpha virt. eigenvalues --    2.17585   2.19568   2.21272   2.22444   2.23424
 Alpha virt. eigenvalues --    2.26287   2.26305   2.29373   2.32206   2.33253
 Alpha virt. eigenvalues --    2.34191   2.34681   2.36377   2.38732   2.39656
 Alpha virt. eigenvalues --    2.40384   2.42821   2.43161   2.43725   2.43979
 Alpha virt. eigenvalues --    2.45036   2.46603   2.48710   2.54656   2.55346
 Alpha virt. eigenvalues --    2.56035   2.57388   2.59379   2.61695   2.64989
 Alpha virt. eigenvalues --    2.67278   2.68684   2.70723   2.71878   2.75705
 Alpha virt. eigenvalues --    2.77292   2.78609   2.80388   2.81834   2.82302
 Alpha virt. eigenvalues --    2.85331   2.85599   2.89995   2.95084   2.96798
 Alpha virt. eigenvalues --    2.98685   2.98707   3.01097   3.05624   3.06313
 Alpha virt. eigenvalues --    3.06901   3.07309   3.08877   3.10314   3.10475
 Alpha virt. eigenvalues --    3.13199   3.15885   3.19551   3.20016   3.22528
 Alpha virt. eigenvalues --    3.22862   3.23895   3.24593   3.24999   3.26209
 Alpha virt. eigenvalues --    3.27592   3.28515   3.32009   3.32219   3.33237
 Alpha virt. eigenvalues --    3.33940   3.36869   3.39564   3.39874   3.40014
 Alpha virt. eigenvalues --    3.40795   3.42181   3.44135   3.46301   3.46832
 Alpha virt. eigenvalues --    3.48886   3.50616   3.52738   3.54169   3.54280
 Alpha virt. eigenvalues --    3.55824   3.56099   3.59109   3.59631   3.61185
 Alpha virt. eigenvalues --    3.61993   3.62957   3.63924   3.64854   3.64957
 Alpha virt. eigenvalues --    3.67478   3.69054   3.69947   3.70858   3.73620
 Alpha virt. eigenvalues --    3.74776   3.74856   3.76489   3.77475   3.78130
 Alpha virt. eigenvalues --    3.79425   3.83782   3.84022   3.84505   3.86188
 Alpha virt. eigenvalues --    3.87017   3.89400   3.89568   3.93192   3.93946
 Alpha virt. eigenvalues --    3.94630   3.96484   3.97376   3.97856   4.00143
 Alpha virt. eigenvalues --    4.01160   4.01505   4.03459   4.07153   4.07301
 Alpha virt. eigenvalues --    4.10099   4.10206   4.12020   4.14645   4.16897
 Alpha virt. eigenvalues --    4.17685   4.19790   4.20182   4.23434   4.24680
 Alpha virt. eigenvalues --    4.27513   4.29179   4.30194   4.30417   4.32254
 Alpha virt. eigenvalues --    4.32955   4.36380   4.37600   4.42209   4.43319
 Alpha virt. eigenvalues --    4.44148   4.46883   4.48972   4.52358   4.52559
 Alpha virt. eigenvalues --    4.55034   4.56327   4.56802   4.56849   4.60233
 Alpha virt. eigenvalues --    4.61767   4.63202   4.65657   4.66748   4.68530
 Alpha virt. eigenvalues --    4.68720   4.69445   4.73164   4.75791   4.76840
 Alpha virt. eigenvalues --    4.78065   4.78717   4.80571   4.81659   4.82774
 Alpha virt. eigenvalues --    4.83399   4.85484   4.86921   4.88448   4.94414
 Alpha virt. eigenvalues --    4.94939   5.01655   5.05035   5.05666   5.06396
 Alpha virt. eigenvalues --    5.10352   5.12609   5.14704   5.16165   5.17127
 Alpha virt. eigenvalues --    5.18663   5.22218   5.25257   5.28875   5.35332
 Alpha virt. eigenvalues --    5.40500   5.40864   5.42559   5.48156   5.49608
 Alpha virt. eigenvalues --    5.53528   5.56305   5.61012   5.63220   5.64797
 Alpha virt. eigenvalues --    5.66723   5.67147   5.72638   5.80197   5.84000
 Alpha virt. eigenvalues --    5.84499   5.94737   5.97232   6.00330   6.08931
 Alpha virt. eigenvalues --    6.12627   6.15393   6.23607   6.23876   6.28290
 Alpha virt. eigenvalues --    6.29194   6.34223   6.37308   6.38062   6.43729
 Alpha virt. eigenvalues --    6.44557   6.48260   6.50120   6.53660   6.59003
 Alpha virt. eigenvalues --    6.59438   6.66414   6.72981   6.76729   6.78153
 Alpha virt. eigenvalues --    6.81140   6.84900   6.86142   6.87255   6.88790
 Alpha virt. eigenvalues --    6.90681   6.94731   7.07945   7.10036   7.12602
 Alpha virt. eigenvalues --    7.15480   7.25954   7.37416   7.40876   7.55348
 Alpha virt. eigenvalues --    7.71508   7.87641   8.06862  15.36044  15.96271
 Alpha virt. eigenvalues --   17.15807  17.76768  18.78483  19.03889  19.54858
 Alpha virt. eigenvalues --   20.75381  21.46253
          Condensed to atoms (all electrons):
               1          2          3          4          5          6
     1  C    6.128176   0.436751  -0.235952  -0.006390   0.059063  -0.341043
     2  N    0.436751   7.240903  -0.891645   0.095720  -0.198359   0.251539
     3  C   -0.235952  -0.891645   9.948372  -1.655680   0.329167  -1.440372
     4  C   -0.006390   0.095720  -1.655680   8.383640  -0.131546   0.367994
     5  C    0.059063  -0.198359   0.329167  -0.131546   7.553058  -1.145205
     6  C   -0.341043   0.251539  -1.440372   0.367994  -1.145205   8.299848
     7  C   -0.026944  -0.072523  -0.979122  -0.887032   0.188469  -0.015671
     8  O   -0.038305  -0.140806   0.301520  -0.048706  -0.034670   0.018217
     9  O   -0.015191   0.001390  -0.121905   0.037801  -0.015431   0.022403
    10  H    0.359448  -0.031358  -0.040006   0.008785  -0.025075   0.046129
    11  H    0.396150   0.025897  -0.011930   0.005661   0.000021  -0.016047
    12  H    0.396130   0.025941  -0.011838   0.005671   0.000004  -0.016052
    13  H    0.001322   0.050561  -0.404141   0.623258  -0.144672   0.085798
    14  H   -0.000824   0.016586   0.074889  -0.070582   0.577620  -0.170887
    15  H   -0.072448  -0.165105  -0.047653  -0.055585  -0.187210   0.259614
    16  H   -0.000178   0.018363  -0.112527   0.010756   0.006515  -0.004355
               7          8          9         10         11         12
     1  C   -0.026944  -0.038305  -0.015191   0.359448   0.396150   0.396130
     2  N   -0.072523  -0.140806   0.001390  -0.031358   0.025897   0.025941
     3  C   -0.979122   0.301520  -0.121905  -0.040006  -0.011930  -0.011838
     4  C   -0.887032  -0.048706   0.037801   0.008785   0.005661   0.005671
     5  C    0.188469  -0.034670  -0.015431  -0.025075   0.000021   0.000004
     6  C   -0.015671   0.018217   0.022403   0.046129  -0.016047  -0.016052
     7  C    7.492664  -0.294434   0.069227   0.029623  -0.029248  -0.029337
     8  O   -0.294434   9.456714  -0.122790  -0.003684  -0.008666  -0.008671
     9  O    0.069227  -0.122790   8.614281  -0.001003   0.000354   0.000356
    10  H    0.029623  -0.003684  -0.001003   0.508930  -0.032924  -0.033029
    11  H   -0.029248  -0.008666   0.000354  -0.032924   0.337819   0.037660
    12  H   -0.029337  -0.008671   0.000356  -0.033029   0.037660   0.338002
    13  H    0.035592  -0.001217  -0.012194  -0.000242   0.000031   0.000031
    14  H   -0.011991  -0.000401  -0.002915  -0.000774   0.000158   0.000157
    15  H    0.028480  -0.000872   0.001895  -0.008525  -0.007306  -0.007322
    16  H    0.142242  -0.129144   0.142595   0.000288   0.000200   0.000196
              13         14         15         16
     1  C    0.001322  -0.000824  -0.072448  -0.000178
     2  N    0.050561   0.016586  -0.165105   0.018363
     3  C   -0.404141   0.074889  -0.047653  -0.112527
     4  C    0.623258  -0.070582  -0.055585   0.010756
     5  C   -0.144672   0.577620  -0.187210   0.006515
     6  C    0.085798  -0.170887   0.259614  -0.004355
     7  C    0.035592  -0.011991   0.028480   0.142242
     8  O   -0.001217  -0.000401  -0.000872  -0.129144
     9  O   -0.012194  -0.002915   0.001895   0.142595
    10  H   -0.000242  -0.000774  -0.008525   0.000288
    11  H    0.000031   0.000158  -0.007306   0.000200
    12  H    0.000031   0.000157  -0.007322   0.000196
    13  H    0.533477  -0.040389   0.007339   0.000764
    14  H   -0.040389   0.610055  -0.081424   0.000197
    15  H    0.007339  -0.081424   0.510543  -0.000101
    16  H    0.000764   0.000197  -0.000101   0.637588
 Mulliken charges:
               1
     1  C   -1.039767
     2  N    0.336144
     3  C    1.298824
     4  C   -0.683767
     5  C   -0.831749
     6  C   -0.201910
     7  C    0.360005
     8  O   -0.944088
     9  O   -0.598873
    10  H    0.223419
    11  H    0.302169
    12  H    0.302099
    13  H    0.264682
    14  H    0.100526
    15  H    0.825682
    16  H    0.286603
 Sum of Mulliken charges =   0.00000
 Mulliken charges with hydrogens summed into heavy atoms:
               1
     1  C   -0.212080
     2  N    0.336144
     3  C    1.298824
     4  C   -0.419085
     5  C   -0.731222
     6  C    0.623772
     7  C    0.360005
     8  O   -0.944088
     9  O   -0.312270
 Electronic spatial extent (au):  <R**2>=           1068.3588
 Charge=              0.0000 electrons
 Dipole moment (field-independent basis, Debye):
    X=             -1.9226    Y=              0.4702    Z=             -0.0001  Tot=              1.9792
 Quadrupole moment (field-independent basis, Debye-Ang):
   XX=            -45.4818   YY=            -51.2512   ZZ=            -54.0160
   XY=             -5.8731   XZ=              0.0004   YZ=             -0.0011
 Traceless Quadrupole moment (field-independent basis, Debye-Ang):
   XX=              4.7678   YY=             -1.0015   ZZ=             -3.7663
   XY=             -5.8731   XZ=              0.0004   YZ=             -0.0011
 Octapole moment (field-independent basis, Debye-Ang**2):
  XXX=             25.5376  YYY=              4.2011  ZZZ=              0.0007  XYY=            -10.7798
  XXY=             -6.8910  XXZ=             -0.0015  XZZ=              8.4970  YZZ=              5.4117
  YYZ=             -0.0025  XYZ=             -0.0008
 Hexadecapole moment (field-independent basis, Debye-Ang**3):
 XXXX=           -638.2778 YYYY=           -488.5120 ZZZZ=            -62.9692 XXXY=            -46.7734
 XXXZ=              0.0011 YYYX=            -11.8851 YYYZ=             -0.0046 ZZZX=             -0.0020
 ZZZY=              0.0026 XXYY=           -227.4217 XXZZ=           -155.1600 YYZZ=            -99.9992
 XXYZ=             -0.0050 YYXZ=              0.0008 ZZXY=             -4.0262
 N-N= 4.516892622310D+02 E-N=-1.926933279064D+03  KE= 4.367456596106D+02
 ******************************Gaussian NBO Version 3.1******************************
             N A T U R A L   A T O M I C   O R B I T A L   A N D
          N A T U R A L   B O N D   O R B I T A L   A N A L Y S I S
 ******************************Gaussian NBO Version 3.1******************************
       /RESON  / : Allow strongly delocalized NBO set

 Analyzing the SCF density

 Job title: 13                                                              

 Storage needed:    994295 in NPA,   1324527 in NBO (********** available)
 GSVD:  LWork=       -5567 too small for GESVD, short by      674279 words or      674279 for optimal perf.


 NATURAL POPULATIONS:  Natural atomic orbital occupancies 
                                                          
   NAO  Atom  No  lang   Type(AO)    Occupancy      Energy
 ----------------------------------------------------------
     1    C    1  S      Cor( 1S)     1.99944     -10.46148
     2    C    1  S      Val( 2S)     1.09296      -0.32202
     3    C    1  S      Ryd( 3S)     0.00080       1.19789
     4    C    1  S      Ryd( 5S)     0.00008       4.82157
     5    C    1  S      Ryd( 4S)     0.00002       1.29579
     6    C    1  px     Val( 2p)     1.21249      -0.14538
     7    C    1  px     Ryd( 4p)     0.00196       1.22071
     8    C    1  px     Ryd( 5p)     0.00010       2.04956
     9    C    1  px     Ryd( 3p)     0.00004       1.15797
    10    C    1  py     Val( 2p)     0.83198      -0.08101
    11    C    1  py     Ryd( 4p)     0.00158       1.23546
    12    C    1  py     Ryd( 5p)     0.00011       1.66178
    13    C    1  py     Ryd( 3p)     0.00002       1.19345
    14    C    1  pz     Val( 2p)     1.22510      -0.14875
    15    C    1  pz     Ryd( 4p)     0.00074       1.09884
    16    C    1  pz     Ryd( 5p)     0.00007       1.87260
    17    C    1  pz     Ryd( 3p)     0.00001       0.91278
    18    C    1  dxy    Ryd( 4d)     0.00047       1.76159
    19    C    1  dxy    Ryd( 5d)     0.00010       3.54344
    20    C    1  dxy    Ryd( 3d)     0.00003       1.26804
    21    C    1  dxz    Ryd( 4d)     0.00166       1.63699
    22    C    1  dxz    Ryd( 5d)     0.00001       3.40441
    23    C    1  dxz    Ryd( 3d)     0.00000       1.31439
    24    C    1  dyz    Ryd( 4d)     0.00118       1.52957
    25    C    1  dyz    Ryd( 5d)     0.00005       3.29690
    26    C    1  dyz    Ryd( 3d)     0.00003       1.09586
    27    C    1  dx2y2  Ryd( 4d)     0.00156       2.23845
    28    C    1  dx2y2  Ryd( 5d)     0.00008       3.73299
    29    C    1  dx2y2  Ryd( 3d)     0.00002       1.48943
    30    C    1  dz2    Ryd( 4d)     0.00207       1.85773
    31    C    1  dz2    Ryd( 5d)     0.00006       3.62813
    32    C    1  dz2    Ryd( 3d)     0.00002       1.57650
    33    C    1  f(0)   Ryd( 5f)     0.00001       3.74990
    34    C    1  f(0)   Ryd( 4f)     0.00003       2.28424
    35    C    1  f(C1)  Ryd( 5f)     0.00013       4.12704
    36    C    1  f(C1)  Ryd( 4f)     0.00004       3.04223
    37    C    1  f(S1)  Ryd( 5f)     0.00006       3.93869
    38    C    1  f(S1)  Ryd( 4f)     0.00004       3.59382
    39    C    1  f(C2)  Ryd( 5f)     0.00001       3.70026
    40    C    1  f(C2)  Ryd( 4f)     0.00004       2.46076
    41    C    1  f(S2)  Ryd( 5f)     0.00003       3.73005
    42    C    1  f(S2)  Ryd( 4f)     0.00001       2.80660
    43    C    1  f(C3)  Ryd( 5f)     0.00003       3.89106
    44    C    1  f(C3)  Ryd( 4f)     0.00004       2.99242
    45    C    1  f(S3)  Ryd( 5f)     0.00005       4.05986
    46    C    1  f(S3)  Ryd( 4f)     0.00005       2.95097
 
    47    N    2  S      Cor( 1S)     1.99913     -14.59844
    48    N    2  S      Val( 2S)     1.13595      -0.52916
    49    N    2  S      Ryd( 3S)     0.00144       2.23516
    50    N    2  S      Ryd( 4S)     0.00004       2.90855
    51    N    2  S      Ryd( 5S)     0.00001       9.49122
    52    N    2  px     Val( 2p)     1.31154      -0.29977
    53    N    2  px     Ryd( 4p)     0.00220       2.47205
    54    N    2  px     Ryd( 5p)     0.00008       4.76115
    55    N    2  px     Ryd( 3p)     0.00005       1.39508
    56    N    2  py     Val( 2p)     1.30266      -0.30049
    57    N    2  py     Ryd( 4p)     0.00435       2.69719
    58    N    2  py     Ryd( 5p)     0.00005       5.39667
    59    N    2  py     Ryd( 3p)     0.00004       1.22032
    60    N    2  pz     Val( 2p)     1.50051      -0.31046
    61    N    2  pz     Ryd( 4p)     0.00372       0.86959
    62    N    2  pz     Ryd( 5p)     0.00003       3.54678
    63    N    2  pz     Ryd( 3p)     0.00006       0.77683
    64    N    2  dxy    Ryd( 5d)     0.00257       5.49805
    65    N    2  dxy    Ryd( 4d)     0.00034       5.45348
    66    N    2  dxy    Ryd( 3d)     0.00009       3.42030
    67    N    2  dxz    Ryd( 3d)     0.00141       1.72294
    68    N    2  dxz    Ryd( 5d)     0.00002       4.23380
    69    N    2  dxz    Ryd( 4d)     0.00010       2.29568
    70    N    2  dyz    Ryd( 3d)     0.00063       1.78145
    71    N    2  dyz    Ryd( 5d)     0.00022       4.29834
    72    N    2  dyz    Ryd( 4d)     0.00004       2.30608
    73    N    2  dx2y2  Ryd( 4d)     0.00054       4.13973
    74    N    2  dx2y2  Ryd( 5d)     0.00042       5.24932
    75    N    2  dx2y2  Ryd( 3d)     0.00008       3.86529
    76    N    2  dz2    Ryd( 3d)     0.00162       2.63774
    77    N    2  dz2    Ryd( 5d)     0.00021       4.63241
    78    N    2  dz2    Ryd( 4d)     0.00014       3.98787
    79    N    2  f(0)   Ryd( 4f)     0.00167       1.66031
    80    N    2  f(0)   Ryd( 5f)     0.00015       4.88895
    81    N    2  f(C1)  Ryd( 4f)     0.00159       2.19397
    82    N    2  f(C1)  Ryd( 5f)     0.00010       4.95410
    83    N    2  f(S1)  Ryd( 4f)     0.00178       2.48151
    84    N    2  f(S1)  Ryd( 5f)     0.00008       4.98849
    85    N    2  f(C2)  Ryd( 4f)     0.00088       1.57868
    86    N    2  f(C2)  Ryd( 5f)     0.00007       4.94114
    87    N    2  f(S2)  Ryd( 4f)     0.00047       1.69036
    88    N    2  f(S2)  Ryd( 5f)     0.00008       5.01194
    89    N    2  f(C3)  Ryd( 4f)     0.00178       2.23380
    90    N    2  f(C3)  Ryd( 5f)     0.00019       5.59900
    91    N    2  f(S3)  Ryd( 4f)     0.00083       3.01692
    92    N    2  f(S3)  Ryd( 5f)     0.00015       5.44299
 
    93    C    3  S      Cor( 1S)     1.99878     -10.38150
    94    C    3  S      Val( 2S)     0.81608      -0.03544
    95    C    3  S      Ryd( 4S)     0.00149       1.95050
    96    C    3  S      Ryd( 5S)     0.00008       3.24794
    97    C    3  S      Ryd( 3S)     0.00003       1.71530
    98    C    3  px     Val( 2p)     1.04578      -0.07349
    99    C    3  px     Ryd( 5p)     0.00426       2.52268
   100    C    3  px     Ryd( 4p)     0.00017       2.25830
   101    C    3  px     Ryd( 3p)     0.00010       0.76574
   102    C    3  py     Val( 2p)     1.03539      -0.07963
   103    C    3  py     Ryd( 4p)     0.00619       2.00476
   104    C    3  py     Ryd( 5p)     0.00010       2.55601
   105    C    3  py     Ryd( 3p)     0.00008       0.95772
   106    C    3  pz     Val( 2p)     1.15012      -0.13295
   107    C    3  pz     Ryd( 4p)     0.00446       1.02795
   108    C    3  pz     Ryd( 5p)     0.00017       1.59094
   109    C    3  pz     Ryd( 3p)     0.00007       0.55776
   110    C    3  dxy    Ryd( 3d)     0.00058       2.05996
   111    C    3  dxy    Ryd( 4d)     0.00071       4.40467
   112    C    3  dxy    Ryd( 5d)     0.00008       5.55982
   113    C    3  dxz    Ryd( 3d)     0.00061       1.14775
   114    C    3  dxz    Ryd( 5d)     0.00041       3.39137
   115    C    3  dxz    Ryd( 4d)     0.00006       2.62496
   116    C    3  dyz    Ryd( 3d)     0.00073       0.90559
   117    C    3  dyz    Ryd( 5d)     0.00028       3.30083
   118    C    3  dyz    Ryd( 4d)     0.00008       2.63046
   119    C    3  dx2y2  Ryd( 3d)     0.00128       2.30698
   120    C    3  dx2y2  Ryd( 4d)     0.00043       4.22211
   121    C    3  dx2y2  Ryd( 5d)     0.00003       4.85724
   122    C    3  dz2    Ryd( 3d)     0.00134       1.14057
   123    C    3  dz2    Ryd( 4d)     0.00032       4.48152
   124    C    3  dz2    Ryd( 5d)     0.00008       5.31568
   125    C    3  f(0)   Ryd( 4f)     0.00042       1.51965
   126    C    3  f(0)   Ryd( 5f)     0.00039       3.50484
   127    C    3  f(C1)  Ryd( 4f)     0.00053       2.02930
   128    C    3  f(C1)  Ryd( 5f)     0.00046       3.78588
   129    C    3  f(S1)  Ryd( 4f)     0.00060       1.78791
   130    C    3  f(S1)  Ryd( 5f)     0.00025       3.68740
   131    C    3  f(C2)  Ryd( 4f)     0.00111       1.59837
   132    C    3  f(C2)  Ryd( 5f)     0.00006       3.55264
   133    C    3  f(S2)  Ryd( 4f)     0.00079       1.40994
   134    C    3  f(S2)  Ryd( 5f)     0.00003       3.56162
   135    C    3  f(C3)  Ryd( 4f)     0.00189       2.49948
   136    C    3  f(C3)  Ryd( 5f)     0.00013       4.37167
   137    C    3  f(S3)  Ryd( 4f)     0.00141       2.69968
   138    C    3  f(S3)  Ryd( 5f)     0.00017       4.46690
 
   139    C    4  S      Cor( 1S)     1.99908     -10.35810
   140    C    4  S      Val( 2S)     0.94812      -0.16718
   141    C    4  S      Ryd( 4S)     0.00121       1.87297
   142    C    4  S      Ryd( 3S)     0.00008       1.62279
   143    C    4  S      Ryd( 5S)     0.00004       3.17170
   144    C    4  px     Val( 2p)     1.07955      -0.06526
   145    C    4  px     Ryd( 4p)     0.00317       1.80135
   146    C    4  px     Ryd( 5p)     0.00011       2.44414
   147    C    4  px     Ryd( 3p)     0.00006       0.60197
   148    C    4  py     Val( 2p)     1.11814      -0.04719
   149    C    4  py     Ryd( 4p)     0.00369       1.85418
   150    C    4  py     Ryd( 5p)     0.00003       2.37937
   151    C    4  py     Ryd( 3p)     0.00004       0.68409
   152    C    4  pz     Val( 2p)     1.03187      -0.11182
   153    C    4  pz     Ryd( 4p)     0.00116       1.11307
   154    C    4  pz     Ryd( 5p)     0.00015       1.69562
   155    C    4  pz     Ryd( 3p)     0.00002       0.46833
   156    C    4  dxy    Ryd( 4d)     0.00120       2.65796
   157    C    4  dxy    Ryd( 5d)     0.00013       3.77123
   158    C    4  dxy    Ryd( 3d)     0.00008       2.42744
   159    C    4  dxz    Ryd( 4d)     0.00126       1.56048
   160    C    4  dxz    Ryd( 5d)     0.00008       3.11778
   161    C    4  dxz    Ryd( 3d)     0.00004       1.54573
   162    C    4  dyz    Ryd( 4d)     0.00080       1.48816
   163    C    4  dyz    Ryd( 5d)     0.00002       3.13369
   164    C    4  dyz    Ryd( 3d)     0.00004       1.23515
   165    C    4  dx2y2  Ryd( 4d)     0.00141       3.36905
   166    C    4  dx2y2  Ryd( 5d)     0.00034       4.05943
   167    C    4  dx2y2  Ryd( 3d)     0.00004       2.18063
   168    C    4  dz2    Ryd( 3d)     0.00146       2.07588
   169    C    4  dz2    Ryd( 4d)     0.00009       3.57149
   170    C    4  dz2    Ryd( 5d)     0.00009       3.57180
   171    C    4  f(0)   Ryd( 5f)     0.00020       3.62747
   172    C    4  f(0)   Ryd( 4f)     0.00001       2.08569
   173    C    4  f(C1)  Ryd( 5f)     0.00023       3.84487
   174    C    4  f(C1)  Ryd( 4f)     0.00003       3.09259
   175    C    4  f(S1)  Ryd( 5f)     0.00025       3.82812
   176    C    4  f(S1)  Ryd( 4f)     0.00002       2.85491
   177    C    4  f(C2)  Ryd( 5f)     0.00001       3.73650
   178    C    4  f(C2)  Ryd( 4f)     0.00002       2.17917
   179    C    4  f(S2)  Ryd( 5f)     0.00001       3.70993
   180    C    4  f(S2)  Ryd( 4f)     0.00002       2.16136
   181    C    4  f(C3)  Ryd( 4f)     0.00017       4.51727
   182    C    4  f(C3)  Ryd( 5f)     0.00006       4.58005
   183    C    4  f(S3)  Ryd( 5f)     0.00004       4.68127
   184    C    4  f(S3)  Ryd( 4f)     0.00012       4.47961
 
   185    C    5  S      Cor( 1S)     1.99910     -10.35237
   186    C    5  S      Val( 2S)     0.95056      -0.17642
   187    C    5  S      Ryd( 4S)     0.00124       1.95825
   188    C    5  S      Ryd( 3S)     0.00005       1.56416
   189    C    5  S      Ryd( 5S)     0.00003       2.88279
   190    C    5  px     Val( 2p)     1.11900      -0.07158
   191    C    5  px     Ryd( 5p)     0.00398       1.74617
   192    C    5  px     Ryd( 4p)     0.00003       1.62941
   193    C    5  px     Ryd( 3p)     0.00005       0.87005
   194    C    5  py     Val( 2p)     1.11391      -0.06379
   195    C    5  py     Ryd( 4p)     0.00393       1.76389
   196    C    5  py     Ryd( 5p)     0.00004       1.76983
   197    C    5  py     Ryd( 3p)     0.00002       0.95605
   198    C    5  pz     Val( 2p)     1.10326      -0.11726
   199    C    5  pz     Ryd( 4p)     0.00139       1.09754
   200    C    5  pz     Ryd( 5p)     0.00004       1.35745
   201    C    5  pz     Ryd( 3p)     0.00002       0.68936
   202    C    5  dxy    Ryd( 4d)     0.00100       2.23776
   203    C    5  dxy    Ryd( 5d)     0.00016       3.64415
   204    C    5  dxy    Ryd( 3d)     0.00006       2.04029
   205    C    5  dxz    Ryd( 4d)     0.00068       1.51549
   206    C    5  dxz    Ryd( 5d)     0.00006       3.06659
   207    C    5  dxz    Ryd( 3d)     0.00004       1.13654
   208    C    5  dyz    Ryd( 4d)     0.00062       1.51879
   209    C    5  dyz    Ryd( 5d)     0.00001       3.07472
   210    C    5  dyz    Ryd( 3d)     0.00004       1.04056
   211    C    5  dx2y2  Ryd( 4d)     0.00204       3.28186
   212    C    5  dx2y2  Ryd( 5d)     0.00033       3.87839
   213    C    5  dx2y2  Ryd( 3d)     0.00003       1.12770
   214    C    5  dz2    Ryd( 3d)     0.00162       2.19484
   215    C    5  dz2    Ryd( 5d)     0.00005       3.54386
   216    C    5  dz2    Ryd( 4d)     0.00009       3.24126
   217    C    5  f(0)   Ryd( 5f)     0.00019       3.64993
   218    C    5  f(0)   Ryd( 4f)     0.00002       1.97147
   219    C    5  f(C1)  Ryd( 5f)     0.00022       3.80534
   220    C    5  f(C1)  Ryd( 4f)     0.00003       2.59248
   221    C    5  f(S1)  Ryd( 5f)     0.00020       3.81358
   222    C    5  f(S1)  Ryd( 4f)     0.00002       2.72505
   223    C    5  f(C2)  Ryd( 5f)     0.00001       3.70838
   224    C    5  f(C2)  Ryd( 4f)     0.00001       2.13602
   225    C    5  f(S2)  Ryd( 5f)     0.00001       3.72711
   226    C    5  f(S2)  Ryd( 4f)     0.00004       2.03758
   227    C    5  f(C3)  Ryd( 4f)     0.00013       4.65009
   228    C    5  f(C3)  Ryd( 5f)     0.00009       4.71732
   229    C    5  f(S3)  Ryd( 5f)     0.00007       4.62161
   230    C    5  f(S3)  Ryd( 4f)     0.00015       4.34792
 
   231    C    6  S      Cor( 1S)     1.99907     -10.40258
   232    C    6  S      Val( 2S)     0.89660      -0.14081
   233    C    6  S      Ryd( 3S)     0.00170       2.03049
   234    C    6  S      Ryd( 5S)     0.00008       2.54731
   235    C    6  S      Ryd( 4S)     0.00004       2.31126
   236    C    6  px     Val( 2p)     1.01923      -0.04814
   237    C    6  px     Ryd( 4p)     0.00366       1.84222
   238    C    6  px     Ryd( 3p)     0.00005       0.98950
   239    C    6  px     Ryd( 5p)     0.00007       2.54095
   240    C    6  py     Val( 2p)     1.04182      -0.07904
   241    C    6  py     Ryd( 4p)     0.00500       1.73429
   242    C    6  py     Ryd( 3p)     0.00007       0.73502
   243    C    6  py     Ryd( 5p)     0.00003       2.07776
   244    C    6  pz     Val( 2p)     1.03304      -0.13191
   245    C    6  pz     Ryd( 4p)     0.00292       1.06809
   246    C    6  pz     Ryd( 3p)     0.00005       0.62836
   247    C    6  pz     Ryd( 5p)     0.00006       1.29936
   248    C    6  dxy    Ryd( 4d)     0.00093       2.71198
   249    C    6  dxy    Ryd( 5d)     0.00022       3.72841
   250    C    6  dxy    Ryd( 3d)     0.00006       2.37315
   251    C    6  dxz    Ryd( 3d)     0.00075       1.60863
   252    C    6  dxz    Ryd( 5d)     0.00050       2.78923
   253    C    6  dxz    Ryd( 4d)     0.00002       1.67444
   254    C    6  dyz    Ryd( 3d)     0.00098       1.57585
   255    C    6  dyz    Ryd( 5d)     0.00003       2.62303
   256    C    6  dyz    Ryd( 4d)     0.00003       1.98364
   257    C    6  dx2y2  Ryd( 3d)     0.00078       2.77426
   258    C    6  dx2y2  Ryd( 5d)     0.00027       3.58141
   259    C    6  dx2y2  Ryd( 4d)     0.00006       2.80366
   260    C    6  dz2    Ryd( 3d)     0.00081       2.42891
   261    C    6  dz2    Ryd( 5d)     0.00021       3.62456
   262    C    6  dz2    Ryd( 4d)     0.00007       3.24569
   263    C    6  f(0)   Ryd( 5f)     0.00014       3.35507
   264    C    6  f(0)   Ryd( 4f)     0.00003       2.26574
   265    C    6  f(C1)  Ryd( 5f)     0.00012       3.63774
   266    C    6  f(C1)  Ryd( 4f)     0.00004       3.07853
   267    C    6  f(S1)  Ryd( 5f)     0.00022       3.77470
   268    C    6  f(S1)  Ryd( 4f)     0.00004       3.11644
   269    C    6  f(C2)  Ryd( 5f)     0.00002       3.54974
   270    C    6  f(C2)  Ryd( 4f)     0.00004       2.50113
   271    C    6  f(S2)  Ryd( 5f)     0.00001       3.50765
   272    C    6  f(S2)  Ryd( 4f)     0.00002       2.43683
   273    C    6  f(C3)  Ryd( 4f)     0.00002       4.18632
   274    C    6  f(C3)  Ryd( 5f)     0.00007       4.33849
   275    C    6  f(S3)  Ryd( 4f)     0.00014       4.29661
   276    C    6  f(S3)  Ryd( 5f)     0.00006       5.01975
 
   277    C    7  S      Cor( 1S)     1.99908     -10.53419
   278    C    7  S      Val( 2S)     0.77599      -0.09726
   279    C    7  S      Ryd( 4S)     0.00435       1.93476
   280    C    7  S      Ryd( 3S)     0.00016       1.60291
   281    C    7  S      Ryd( 5S)     0.00009       2.30794
   282    C    7  px     Val( 2p)     0.89441      -0.03772
   283    C    7  px     Ryd( 5p)     0.00482       1.65663
   284    C    7  px     Ryd( 3p)     0.00027       1.02177
   285    C    7  px     Ryd( 4p)     0.00002       1.56915
   286    C    7  py     Val( 2p)     0.74371      -0.01146
   287    C    7  py     Ryd( 4p)     0.01304       1.63049
   288    C    7  py     Ryd( 3p)     0.00008       0.95829
   289    C    7  py     Ryd( 5p)     0.00006       2.19066
   290    C    7  pz     Val( 2p)     0.77069      -0.11741
   291    C    7  pz     Ryd( 5p)     0.00053       1.18509
   292    C    7  pz     Ryd( 3p)     0.00016       0.62669
   293    C    7  pz     Ryd( 4p)     0.00003       1.18241
   294    C    7  dxy    Ryd( 5d)     0.00109       4.17433
   295    C    7  dxy    Ryd( 4d)     0.00007       3.34228
   296    C    7  dxy    Ryd( 3d)     0.00004       3.19537
   297    C    7  dxz    Ryd( 5d)     0.00072       3.29219
   298    C    7  dxz    Ryd( 4d)     0.00006       2.19361
   299    C    7  dxz    Ryd( 3d)     0.00015       1.61715
   300    C    7  dyz    Ryd( 5d)     0.00132       3.38918
   301    C    7  dyz    Ryd( 4d)     0.00007       2.36223
   302    C    7  dyz    Ryd( 3d)     0.00001       1.75866
   303    C    7  dx2y2  Ryd( 5d)     0.00131       4.20770
   304    C    7  dx2y2  Ryd( 4d)     0.00006       3.78158
   305    C    7  dx2y2  Ryd( 3d)     0.00004       2.44907
   306    C    7  dz2    Ryd( 5d)     0.00019       4.49567
   307    C    7  dz2    Ryd( 4d)     0.00016       3.45477
   308    C    7  dz2    Ryd( 3d)     0.00012       2.82389
   309    C    7  f(0)   Ryd( 5f)     0.00014       3.45291
   310    C    7  f(0)   Ryd( 4f)     0.00004       2.53178
   311    C    7  f(C1)  Ryd( 5f)     0.00015       3.71880
   312    C    7  f(C1)  Ryd( 4f)     0.00002       3.29140
   313    C    7  f(S1)  Ryd( 5f)     0.00005       3.60892
   314    C    7  f(S1)  Ryd( 4f)     0.00005       3.46829
   315    C    7  f(C2)  Ryd( 5f)     0.00001       3.44637
   316    C    7  f(C2)  Ryd( 4f)     0.00012       2.72810
   317    C    7  f(S2)  Ryd( 5f)     0.00002       3.59236
   318    C    7  f(S2)  Ryd( 4f)     0.00001       2.96534
   319    C    7  f(C3)  Ryd( 4f)     0.00012       4.55664
   320    C    7  f(C3)  Ryd( 5f)     0.00002       7.54549
   321    C    7  f(S3)  Ryd( 4f)     0.00009       4.53483
   322    C    7  f(S3)  Ryd( 5f)     0.00002       5.41497
 
   323    O    8  S      Cor( 1S)     1.99979     -19.31882
   324    O    8  S      Val( 2S)     1.70725      -0.99058
   325    O    8  S      Ryd( 4S)     0.00076       3.20049
   326    O    8  S      Ryd( 3S)     0.00015       1.39982
   327    O    8  S      Ryd( 5S)     0.00002       8.81071
   328    O    8  px     Val( 2p)     1.82214      -0.33219
   329    O    8  px     Ryd( 4p)     0.00138       1.21897
   330    O    8  px     Ryd( 3p)     0.00011       0.61972
   331    O    8  px     Ryd( 5p)     0.00003       4.76612
   332    O    8  py     Val( 2p)     1.58462      -0.32573
   333    O    8  py     Ryd( 4p)     0.00124       1.41603
   334    O    8  py     Ryd( 3p)     0.00015       0.59363
   335    O    8  py     Ryd( 5p)     0.00006       5.64732
   336    O    8  pz     Val( 2p)     1.49475      -0.28618
   337    O    8  pz     Ryd( 4p)     0.00113       0.89766
   338    O    8  pz     Ryd( 3p)     0.00003       0.48546
   339    O    8  pz     Ryd( 5p)     0.00000       4.23382
   340    O    8  dxy    Ryd( 3d)     0.00702       2.00540
   341    O    8  dxy    Ryd( 4d)     0.00008       2.86038
   342    O    8  dxy    Ryd( 5d)     0.00004       6.66642
   343    O    8  dxz    Ryd( 3d)     0.00128       1.37290
   344    O    8  dxz    Ryd( 4d)     0.00005       1.76432
   345    O    8  dxz    Ryd( 5d)     0.00001       6.52130
   346    O    8  dyz    Ryd( 3d)     0.00581       1.53512
   347    O    8  dyz    Ryd( 4d)     0.00003       1.77337
   348    O    8  dyz    Ryd( 5d)     0.00003       6.51146
   349    O    8  dx2y2  Ryd( 3d)     0.00712       1.89149
   350    O    8  dx2y2  Ryd( 4d)     0.00007       2.48588
   351    O    8  dx2y2  Ryd( 5d)     0.00004       6.60722
   352    O    8  dz2    Ryd( 3d)     0.00299       1.59417
   353    O    8  dz2    Ryd( 4d)     0.00008       2.35296
   354    O    8  dz2    Ryd( 5d)     0.00000       6.59001
   355    O    8  f(0)   Ryd( 4f)     0.00013       3.05640
   356    O    8  f(0)   Ryd( 5f)     0.00000       5.63639
   357    O    8  f(C1)  Ryd( 4f)     0.00006       3.16313
   358    O    8  f(C1)  Ryd( 5f)     0.00001       5.68847
   359    O    8  f(S1)  Ryd( 4f)     0.00014       3.56823
   360    O    8  f(S1)  Ryd( 5f)     0.00001       5.89771
   361    O    8  f(C2)  Ryd( 4f)     0.00022       3.07805
   362    O    8  f(C2)  Ryd( 5f)     0.00002       5.79136
   363    O    8  f(S2)  Ryd( 4f)     0.00018       3.04722
   364    O    8  f(S2)  Ryd( 5f)     0.00001       5.77369
   365    O    8  f(C3)  Ryd( 4f)     0.00043       3.85039
   366    O    8  f(C3)  Ryd( 5f)     0.00001       6.14701
   367    O    8  f(S3)  Ryd( 4f)     0.00039       3.61520
   368    O    8  f(S3)  Ryd( 5f)     0.00003       6.08152
 
   369    O    9  S      Cor( 1S)     1.99978     -19.45266
   370    O    9  S      Val( 2S)     1.67303      -1.02149
   371    O    9  S      Ryd( 3S)     0.00039       1.32178
   372    O    9  S      Ryd( 4S)     0.00015       2.20563
   373    O    9  S      Ryd( 5S)     0.00001      10.12046
   374    O    9  px     Val( 2p)     1.43720      -0.34502
   375    O    9  px     Ryd( 4p)     0.00079       1.17855
   376    O    9  px     Ryd( 3p)     0.00008       0.58228
   377    O    9  px     Ryd( 5p)     0.00004       5.32055
   378    O    9  py     Val( 2p)     1.71740      -0.39567
   379    O    9  py     Ryd( 4p)     0.00079       0.98936
   380    O    9  py     Ryd( 3p)     0.00011       0.55218
   381    O    9  py     Ryd( 5p)     0.00008       4.97051
   382    O    9  pz     Val( 2p)     1.85481      -0.40418
   383    O    9  pz     Ryd( 4p)     0.00145       0.76479
   384    O    9  pz     Ryd( 3p)     0.00005       0.51503
   385    O    9  pz     Ryd( 5p)     0.00001       4.15488
   386    O    9  dxy    Ryd( 3d)     0.00694       2.02613
   387    O    9  dxy    Ryd( 4d)     0.00017       2.54873
   388    O    9  dxy    Ryd( 5d)     0.00004       6.87350
   389    O    9  dxz    Ryd( 3d)     0.00041       1.19247
   390    O    9  dxz    Ryd( 4d)     0.00009       1.92304
   391    O    9  dxz    Ryd( 5d)     0.00002       6.52392
   392    O    9  dyz    Ryd( 3d)     0.00508       1.26128
   393    O    9  dyz    Ryd( 4d)     0.00001       1.71647
   394    O    9  dyz    Ryd( 5d)     0.00004       6.50777
   395    O    9  dx2y2  Ryd( 3d)     0.00309       1.69617
   396    O    9  dx2y2  Ryd( 4d)     0.00009       2.13087
   397    O    9  dx2y2  Ryd( 5d)     0.00006       6.83940
   398    O    9  dz2    Ryd( 3d)     0.00317       1.46391
   399    O    9  dz2    Ryd( 4d)     0.00014       2.34091
   400    O    9  dz2    Ryd( 5d)     0.00001       6.74150
   401    O    9  f(0)   Ryd( 4f)     0.00055       2.76163
   402    O    9  f(0)   Ryd( 5f)     0.00001       5.94236
   403    O    9  f(C1)  Ryd( 4f)     0.00027       3.49825
   404    O    9  f(C1)  Ryd( 5f)     0.00001       6.22895
   405    O    9  f(S1)  Ryd( 4f)     0.00013       3.17287
   406    O    9  f(S1)  Ryd( 5f)     0.00001       6.09533
   407    O    9  f(C2)  Ryd( 4f)     0.00009       2.80313
   408    O    9  f(C2)  Ryd( 5f)     0.00001       6.12192
   409    O    9  f(S2)  Ryd( 4f)     0.00007       2.87467
   410    O    9  f(S2)  Ryd( 5f)     0.00001       5.96896
   411    O    9  f(C3)  Ryd( 4f)     0.00004       4.07488
   412    O    9  f(C3)  Ryd( 5f)     0.00004       6.50956
   413    O    9  f(S3)  Ryd( 4f)     0.00014       4.07578
   414    O    9  f(S3)  Ryd( 5f)     0.00004       6.49501
 
   415    H   10  S      Val( 1S)     0.79679       0.00200
   416    H   10  S      Ryd( 4S)     0.00023       1.80809
   417    H   10  S      Ryd( 2S)     0.00013       0.56692
   418    H   10  S      Ryd( 3S)     0.00003       1.37974
   419    H   10  px     Ryd( 2p)     0.00070       1.29433
   420    H   10  px     Ryd( 4p)     0.00009       4.07483
   421    H   10  px     Ryd( 3p)     0.00001       3.32966
   422    H   10  py     Ryd( 2p)     0.00043       1.10928
   423    H   10  py     Ryd( 4p)     0.00006       3.98327
   424    H   10  py     Ryd( 3p)     0.00002       2.15950
   425    H   10  pz     Ryd( 2p)     0.00017       0.90390
   426    H   10  pz     Ryd( 4p)     0.00005       3.75519
   427    H   10  pz     Ryd( 3p)     0.00002       1.83090
   428    H   10  dxy    Ryd( 3d)     0.00007       2.19302
   429    H   10  dxy    Ryd( 4d)     0.00002       4.14987
   430    H   10  dxz    Ryd( 3d)     0.00001       1.94240
   431    H   10  dxz    Ryd( 4d)     0.00003       3.81474
   432    H   10  dyz    Ryd( 3d)     0.00002       1.88006
   433    H   10  dyz    Ryd( 4d)     0.00001       3.30345
   434    H   10  dx2y2  Ryd( 3d)     0.00006       2.26858
   435    H   10  dx2y2  Ryd( 4d)     0.00001       4.11322
   436    H   10  dz2    Ryd( 3d)     0.00009       1.99225
   437    H   10  dz2    Ryd( 4d)     0.00002       3.54485
 
   438    H   11  S      Val( 1S)     0.77609       0.02122
   439    H   11  S      Ryd( 4S)     0.00026       1.88808
   440    H   11  S      Ryd( 2S)     0.00010       0.41036
   441    H   11  S      Ryd( 3S)     0.00002       1.39083
   442    H   11  px     Ryd( 2p)     0.00027       1.11255
   443    H   11  px     Ryd( 4p)     0.00009       3.80659
   444    H   11  px     Ryd( 3p)     0.00003       2.23006
   445    H   11  py     Ryd( 2p)     0.00033       1.04361
   446    H   11  py     Ryd( 4p)     0.00003       3.86875
   447    H   11  py     Ryd( 3p)     0.00002       2.08468
   448    H   11  pz     Ryd( 2p)     0.00059       1.12156
   449    H   11  pz     Ryd( 4p)     0.00008       3.92477
   450    H   11  pz     Ryd( 3p)     0.00002       3.23543
   451    H   11  dxy    Ryd( 3d)     0.00002       2.49873
   452    H   11  dxy    Ryd( 4d)     0.00001       3.21146
   453    H   11  dxz    Ryd( 3d)     0.00007       2.46322
   454    H   11  dxz    Ryd( 4d)     0.00001       3.76603
   455    H   11  dyz    Ryd( 3d)     0.00005       2.36994
   456    H   11  dyz    Ryd( 4d)     0.00001       3.57450
   457    H   11  dx2y2  Ryd( 3d)     0.00003       2.41449
   458    H   11  dx2y2  Ryd( 4d)     0.00002       3.18703
   459    H   11  dz2    Ryd( 3d)     0.00004       2.48557
   460    H   11  dz2    Ryd( 4d)     0.00001       3.75826
 
   461    H   12  S      Val( 1S)     0.77605       0.02127
   462    H   12  S      Ryd( 4S)     0.00026       1.88787
   463    H   12  S      Ryd( 2S)     0.00010       0.41058
   464    H   12  S      Ryd( 3S)     0.00002       1.39063
   465    H   12  px     Ryd( 2p)     0.00027       1.11311
   466    H   12  px     Ryd( 4p)     0.00009       3.80660
   467    H   12  px     Ryd( 3p)     0.00003       2.23225
   468    H   12  py     Ryd( 2p)     0.00033       1.04372
   469    H   12  py     Ryd( 4p)     0.00003       3.86847
   470    H   12  py     Ryd( 3p)     0.00002       2.08518
   471    H   12  pz     Ryd( 2p)     0.00059       1.12147
   472    H   12  pz     Ryd( 4p)     0.00008       3.92349
   473    H   12  pz     Ryd( 3p)     0.00002       3.23565
   474    H   12  dxy    Ryd( 3d)     0.00002       2.49892
   475    H   12  dxy    Ryd( 4d)     0.00001       3.21226
   476    H   12  dxz    Ryd( 3d)     0.00007       2.46372
   477    H   12  dxz    Ryd( 4d)     0.00001       3.76671
   478    H   12  dyz    Ryd( 3d)     0.00005       2.37006
   479    H   12  dyz    Ryd( 4d)     0.00001       3.57356
   480    H   12  dx2y2  Ryd( 3d)     0.00003       2.41487
   481    H   12  dx2y2  Ryd( 4d)     0.00002       3.18783
   482    H   12  dz2    Ryd( 3d)     0.00004       2.48540
   483    H   12  dz2    Ryd( 4d)     0.00001       3.75721
 
   484    H   13  S      Val( 1S)     0.76889       0.06201
   485    H   13  S      Ryd( 4S)     0.00030       1.87309
   486    H   13  S      Ryd( 2S)     0.00010       0.79501
   487    H   13  S      Ryd( 3S)     0.00003       1.31604
   488    H   13  px     Ryd( 2p)     0.00071       0.91228
   489    H   13  px     Ryd( 4p)     0.00007       4.15223
   490    H   13  px     Ryd( 3p)     0.00008       2.97349
   491    H   13  py     Ryd( 2p)     0.00085       0.89127
   492    H   13  py     Ryd( 4p)     0.00015       4.70843
   493    H   13  py     Ryd( 3p)     0.00006       3.46771
   494    H   13  pz     Ryd( 2p)     0.00057       0.55718
   495    H   13  pz     Ryd( 4p)     0.00006       3.69709
   496    H   13  pz     Ryd( 3p)     0.00004       2.18006
   497    H   13  dxy    Ryd( 3d)     0.00010       2.05457
   498    H   13  dxy    Ryd( 4d)     0.00002       4.37035
   499    H   13  dxz    Ryd( 3d)     0.00011       1.53339
   500    H   13  dxz    Ryd( 4d)     0.00001       3.63619
   501    H   13  dyz    Ryd( 3d)     0.00003       1.62680
   502    H   13  dyz    Ryd( 4d)     0.00001       3.92488
   503    H   13  dx2y2  Ryd( 3d)     0.00007       2.02734
   504    H   13  dx2y2  Ryd( 4d)     0.00003       4.34108
   505    H   13  dz2    Ryd( 3d)     0.00004       1.92420
   506    H   13  dz2    Ryd( 4d)     0.00003       3.88590
 
   507    H   14  S      Val( 1S)     0.77951       0.05304
   508    H   14  S      Ryd( 4S)     0.00026       1.87878
   509    H   14  S      Ryd( 2S)     0.00014       0.89320
   510    H   14  S      Ryd( 3S)     0.00003       1.17891
   511    H   14  px     Ryd( 2p)     0.00063       0.92942
   512    H   14  px     Ryd( 4p)     0.00010       4.15673
   513    H   14  px     Ryd( 3p)     0.00008       3.31348
   514    H   14  py     Ryd( 2p)     0.00049       0.97630
   515    H   14  py     Ryd( 4p)     0.00011       4.40935
   516    H   14  py     Ryd( 3p)     0.00006       3.34043
   517    H   14  pz     Ryd( 2p)     0.00073       0.69233
   518    H   14  pz     Ryd( 4p)     0.00009       2.93922
   519    H   14  pz     Ryd( 3p)     0.00001       2.84120
   520    H   14  dxy    Ryd( 3d)     0.00014       2.26891
   521    H   14  dxy    Ryd( 4d)     0.00001       3.96581
   522    H   14  dxz    Ryd( 3d)     0.00003       1.98900
   523    H   14  dxz    Ryd( 4d)     0.00001       3.25960
   524    H   14  dyz    Ryd( 3d)     0.00003       2.01206
   525    H   14  dyz    Ryd( 4d)     0.00002       3.33576
   526    H   14  dx2y2  Ryd( 3d)     0.00003       2.24953
   527    H   14  dx2y2  Ryd( 4d)     0.00002       3.91019
   528    H   14  dz2    Ryd( 3d)     0.00002       2.19426
   529    H   14  dz2    Ryd( 4d)     0.00003       3.46304
 
   530    H   15  S      Val( 1S)     0.78396       0.01424
   531    H   15  S      Ryd( 4S)     0.00030       1.91464
   532    H   15  S      Ryd( 2S)     0.00011       0.48172
   533    H   15  S      Ryd( 3S)     0.00004       1.50187
   534    H   15  px     Ryd( 2p)     0.00052       0.89046
   535    H   15  px     Ryd( 4p)     0.00024       4.33469
   536    H   15  px     Ryd( 3p)     0.00002       3.58967
   537    H   15  py     Ryd( 2p)     0.00027       1.01958
   538    H   15  py     Ryd( 4p)     0.00006       4.11209
   539    H   15  py     Ryd( 3p)     0.00005       2.56041
   540    H   15  pz     Ryd( 2p)     0.00143       0.57961
   541    H   15  pz     Ryd( 4p)     0.00001       4.00617
   542    H   15  pz     Ryd( 3p)     0.00002       1.72314
   543    H   15  dxy    Ryd( 3d)     0.00007       2.23063
   544    H   15  dxy    Ryd( 4d)     0.00002       4.22635
   545    H   15  dxz    Ryd( 3d)     0.00001       1.87031
   546    H   15  dxz    Ryd( 4d)     0.00001       3.72757
   547    H   15  dyz    Ryd( 3d)     0.00004       1.77122
   548    H   15  dyz    Ryd( 4d)     0.00001       3.36638
   549    H   15  dx2y2  Ryd( 3d)     0.00006       2.09942
   550    H   15  dx2y2  Ryd( 4d)     0.00004       4.26946
   551    H   15  dz2    Ryd( 3d)     0.00005       2.01434
   552    H   15  dz2    Ryd( 4d)     0.00004       3.66772
 
   553    H   16  S      Val( 1S)     0.49418       0.14062
   554    H   16  S      Ryd( 4S)     0.00096       1.84384
   555    H   16  S      Ryd( 3S)     0.00020       1.41147
   556    H   16  S      Ryd( 2S)     0.00010       0.62356
   557    H   16  px     Ryd( 2p)     0.00043       1.89442
   558    H   16  px     Ryd( 4p)     0.00032       4.43145
   559    H   16  px     Ryd( 3p)     0.00001       3.14661
   560    H   16  py     Ryd( 2p)     0.00030       1.46139
   561    H   16  py     Ryd( 4p)     0.00008       3.74172
   562    H   16  py     Ryd( 3p)     0.00001       2.70576
   563    H   16  pz     Ryd( 2p)     0.00072       1.14390
   564    H   16  pz     Ryd( 4p)     0.00005       3.45066
   565    H   16  pz     Ryd( 3p)     0.00001       2.42205
   566    H   16  dxy    Ryd( 3d)     0.00006       1.55268
   567    H   16  dxy    Ryd( 4d)     0.00000       4.42329
   568    H   16  dxz    Ryd( 3d)     0.00016       1.16123
   569    H   16  dxz    Ryd( 4d)     0.00000       4.20370
   570    H   16  dyz    Ryd( 3d)     0.00003       1.15068
   571    H   16  dyz    Ryd( 4d)     0.00000       3.81731
   572    H   16  dx2y2  Ryd( 3d)     0.00009       1.62082
   573    H   16  dx2y2  Ryd( 4d)     0.00001       4.52488
   574    H   16  dz2    Ryd( 3d)     0.00010       1.64862
   575    H   16  dz2    Ryd( 4d)     0.00000       4.01898

 WARNING:  1 low occupancy (<1.9990e) core orbital  found on  C    3

 WARNING:  Population inversion found on atom  C    1
           Population inversion found on atom  N    2
           Population inversion found on atom  C    3
           Population inversion found on atom  C    4
           Population inversion found on atom  C    5
           Population inversion found on atom  C    6
           Population inversion found on atom  C    7
           Population inversion found on atom  O    8
           Population inversion found on atom  O    9
           Population inversion found on atom  H   10
           Population inversion found on atom  H   11
           Population inversion found on atom  H   12
           Population inversion found on atom  H   13
           Population inversion found on atom  H   14
           Population inversion found on atom  H   15
           Population inversion found on atom  H   16


 Summary of Natural Population Analysis:                  
                                                          
                                       Natural Population 
                Natural  -----------------------------------------------
    Atom  No    Charge         Core      Valence    Rydberg      Total
 -----------------------------------------------------------------------
      C    1   -0.37540      1.99944     4.36253    0.01343     6.37540
      N    2   -0.28011      1.99913     5.25066    0.03032     7.28011
      C    3   -0.07862      1.99878     4.04737    0.03247     6.07862
      C    4   -0.19478      1.99908     4.17768    0.01802     6.19478
      C    5   -0.30468      1.99910     4.28673    0.01886     6.30468
      C    6   -0.01019      1.99907     3.99069    0.02043     6.01019
      C    7    0.78625      1.99908     3.18479    0.02988     5.21375
      O    8   -0.63990      1.99979     6.60875    0.03136     8.63990
      O    9   -0.70698      1.99978     6.68246    0.02474     8.70698
      H   10    0.20093      0.00000     0.79679    0.00228     0.79907
      H   11    0.22178      0.00000     0.77609    0.00212     0.77822
      H   12    0.22182      0.00000     0.77605    0.00213     0.77818
      H   13    0.22762      0.00000     0.76889    0.00349     0.77238
      H   14    0.21744      0.00000     0.77951    0.00305     0.78256
      H   15    0.21265      0.00000     0.78396    0.00339     0.78735
      H   16    0.50216      0.00000     0.49418    0.00366     0.49784
 =======================================================================
   * Total *    0.00000     17.99324    47.76715    0.23961    66.00000

                                 Natural Population      
 --------------------------------------------------------
   Core                      17.99324 ( 99.9625% of  18)
   Valence                   47.76715 ( 99.5149% of  48)
   Natural Minimal Basis     65.76039 ( 99.6370% of  66)
   Natural Rydberg Basis      0.23961 (  0.3630% of  66)
 --------------------------------------------------------

    Atom  No          Natural Electron Configuration
 ----------------------------------------------------------------------------
      C    1      [core]2S( 1.09)2p( 3.27)4d( 0.01)
      N    2      [core]2S( 1.14)2p( 4.11)4p( 0.01)4f( 0.01)
      C    3      [core]2S( 0.82)2p( 3.23)4p( 0.01)4f( 0.01)
      C    4      [core]2S( 0.95)2p( 3.23)4p( 0.01)
      C    5      [core]2S( 0.95)2p( 3.34)4p( 0.01)
      C    6      [core]2S( 0.90)2p( 3.09)4p( 0.01)
      C    7      [core]2S( 0.78)2p( 2.41)4p( 0.01)5p( 0.01)
      O    8      [core]2S( 1.71)2p( 4.90)3d( 0.02)
      O    9      [core]2S( 1.67)2p( 5.01)3d( 0.02)
      H   10            1S( 0.80)
      H   11            1S( 0.78)
      H   12            1S( 0.78)
      H   13            1S( 0.77)
      H   14            1S( 0.78)
      H   15            1S( 0.78)
      H   16            1S( 0.49)


 NATURAL BOND ORBITAL ANALYSIS:

                       Occupancies       Lewis Structure    Low   High
           Occ.    -------------------  -----------------   occ   occ
  Cycle   Thresh.   Lewis   Non-Lewis     CR  BD  3C  LP    (L)   (NL)   Dev
 =============================================================================
   1(1)    1.90    62.81193   3.18807      9  18   0   6     8      4    0.44
   2(2)    1.90    62.81193   3.18807      9  18   0   6     8      4    0.44
   3(1)    1.80    63.37517   2.62483      9  18   0   6     2      3    0.44
   4(2)    1.80    63.37517   2.62483      9  18   0   6     2      3    0.44
   5(1)    1.70    64.11984   1.88016      9  19   0   5     1      3    0.44
   6(2)    1.70    64.01182   1.98818      9  19   0   5     1      3    0.43
   7(3)    1.70    64.35961   1.64039      9  19   0   5     1      3    0.44
   8(4)    1.70    64.17906   1.82094      9  19   0   5     1      3    0.43
   9(5)    1.70    64.35961   1.64039      9  19   0   5     1      3    0.44
  10(6)    1.70    64.17906   1.82094      9  19   0   5     1      3    0.43
  11(7)    1.70    64.35961   1.64039      9  19   0   5     1      3    0.44
  12(8)    1.70    64.17906   1.82094      9  19   0   5     1      3    0.43
  13(9)    1.70    64.35961   1.64039      9  19   0   5     1      3    0.44
  14(1)    1.60    64.35961   1.64039      9  19   0   5     1      3    0.44
  15(2)    1.60    64.17906   1.82094      9  19   0   5     1      3    0.43
  16(3)    1.60    64.35961   1.64039      9  19   0   5     1      3    0.44
  17(4)    1.60    64.17906   1.82094      9  19   0   5     1      3    0.43
  18(5)    1.60    64.35961   1.64039      9  19   0   5     1      3    0.44
  19(6)    1.60    64.17906   1.82094      9  19   0   5     1      3    0.43
  20(7)    1.60    64.35961   1.64039      9  19   0   5     1      3    0.44
  21(8)    1.60    64.17906   1.82094      9  19   0   5     1      3    0.43
  22(9)    1.60    64.35961   1.64039      9  19   0   5     1      3    0.44
  23(1)    1.50    63.38828   2.61172      9  17   0   7     0      4    0.73
  24(2)    1.50    63.38828   2.61172      9  17   0   7     0      4    0.73
  25(1)    1.70    64.35961   1.64039      9  19   0   5     1      3    0.44
 -----------------------------------------------------------------------------

 Structure accepted: RESONANCE keyword permits strongly delocalized structure

 WARNING:  1 low occupancy (<1.9990e) core orbital  found on  C    3

 --------------------------------------------------------
   Core                     17.99326 ( 99.963% of  18)
   Valence Lewis            46.36635 ( 96.597% of  48)
  ==================       ============================
   Total Lewis              64.35961 ( 97.515% of  66)
  -----------------------------------------------------
   Valence non-Lewis         1.51031 (  2.288% of  66)
   Rydberg non-Lewis         0.13007 (  0.197% of  66)
[...]

 Dipole orientation:
     6         -3.19554916         -1.35555384          3.30362359
     7         -3.14249996          1.34850002          2.82211933
     6         -3.11846337          2.52569077          0.50539835
     6         -3.06826818          5.10709363          0.90018202
     6         -3.06151093          5.50351665          3.52103340
     6         -3.10804583          3.14713402          4.63868170
     6         -3.14487248          1.12425470         -1.85570054
     8         -3.19073442         -1.14801561         -2.06847544
     8         -3.11568503          2.66851560         -3.88233586
     1         -3.20156574         -1.62772462          5.33898442
     1         -4.87626012         -2.19903204          2.47926760
     1         -1.54853741         -2.26409136          2.48039924
     1         -3.04037428          6.50425691         -0.57711361
     1         -3.02706114          7.28408450          4.50131040
     1         -3.11916228          2.61688488          6.60344573
     1         -3.13741372          1.59112433         -5.35508670

 Electric dipole moment (dipole orientation):
 (Debye = 10**-18 statcoulomb cm , SI units = C m)
                  (au)            (Debye)         (10**-30 SI)
   Tot        0.553297D+00      0.140634D+01      0.469105D+01
   x          0.000000D+00      0.000000D+00      0.000000D+00
   y          0.000000D+00      0.000000D+00      0.000000D+00
   z          0.553297D+00      0.140634D+01      0.469105D+01

 Dipole polarizability, Alpha (dipole orientation).
 (esu units = cm**3 , SI units = C**2 m**2 J**-1)
 Alpha(0;0):
               (au)            (10**-24 esu)      (10**-40 SI)
   iso        0.868575D+02      0.128709D+02      0.143209D+02
   aniso      0.506308D+02      0.750271D+01      0.834789D+01
   xx         0.545445D+02      0.808266D+01      0.899317D+01
   yx         0.894082D+00      0.132489D+00      0.147414D+00
   yy         0.100270D+03      0.148585D+02      0.165323D+02
   zx         0.141283D+00      0.209360D-01      0.232945D-01
   zy         0.794033D+01      0.117664D+01      0.130918D+01
   zz         0.105758D+03      0.156717D+02      0.174371D+02

 ----------------------------------------------------------------------
 Unable to Open any file for archive entry.
 1\1\GINC-AE40\Freq\RM062X\Aug-CC-pVTZ\C6H7N1O2\DHUANG\04-Mar-2025\0\\#
 N Geom=AllCheck Guess=TCheck SCRF=Check GenChk RM062X/Aug-CC-pVTZ Freq
 \\13\\0,1\C,-1.714756439,1.8305326293,-0.3728975969\N,-1.6953986189,0.
 80817015,-1.4061712596\C,-1.6669017075,-0.5544489292,-1.2227473624\C,-
 1.6565951449,-1.1583685373,-2.4659422323\C,-1.6792955663,-0.1362566982
 ,-3.4262905775\C,-1.7028102863,1.0586248191,-2.7356567222\C,-1.6521120
 713,-1.1613986828,0.0973551571\O,-1.6633234879,-0.5711393149,1.1511965
 415\O,-1.6253737091,-2.5080299132,0.0337077696\H,-1.7355177993,2.79863
 45083,-0.866024258\H,-2.5922071219,1.7169544697,0.257758143\H,-0.83129
 14724,1.7532283242,0.2548397255\H,-1.6349264996,-2.2215704986,-2.63062
 00491\H,-1.678853851,-0.2445342848,-4.4965746975\H,-1.7243560785,2.073
 5490084,-3.0951378878\H,-1.6179385863,-2.82554331,0.9456792066\\Versio
 n=ES64L-G16RevC.01\State=1-A\HF=-438.0602721\RMSD=2.606e-09\RMSF=6.728
 e-05\ZeroPoint=0.1273615\Thermal=0.1353131\ETot=-437.924959\HTot=-437.
 9240148\GTot=-437.9656916\Dipole=-0.0097116,0.455302,-0.3142352\Dipole
 Deriv=0.1892566,-0.0043835,-0.0038994,-0.0043968,0.419525,0.2042219,-0
 .0039665,0.2062653,0.3554101,-0.1155926,0.0030885,0.0116099,0.0029595,
 -0.3057019,-0.5857458,0.0107888,-0.5399235,-0.3240799,-0.0450425,-0.00
 11659,-0.0129089,-0.0011647,0.0530257,0.54883,-0.0126073,0.5388822,-0.
 9590641,-0.1629342,-0.004135,0.0034403,-0.0038497,0.0129971,-0.1360639
 ,0.0078507,-0.3434672,0.2851566,-0.2333571,0.0031223,-0.0034204,0.0034
 038,-0.3850678,0.1793293,0.0006529,-0.0176246,-0.0740031,-0.1110783,-0
 .0035675,-0.0022172,-0.0042295,0.1030941,0.117401,-0.0100138,0.4983447
 ,0.0282075,0.3415055,-0.0329517,0.0094546,-0.0332833,1.9476053,-0.3305
 858,0.0094899,-0.3109546,2.2535333,-0.367572,0.0084042,0.0026401,0.008
 0303,-0.7788232,-0.1862863,0.0000628,-0.0966372,-1.5046973,-0.364128,0
 .0230098,-0.0064181,0.0238438,-1.5081686,0.3102877,-0.004091,0.1919202
 ,-0.471357,0.0882281,0.0032775,-0.0002604,0.0031184,-0.0627814,0.00591
 56,-0.0022918,0.1046144,0.0063909,-0.0181572,0.0000747,0.0635351,-0.04
 58848,0.0236691,-0.0186472,0.0352662,-0.0764641,0.0030725,-0.0203076,-
 0.0021474,-0.0626683,0.0440242,0.0254437,-0.0213736,-0.0320282,-0.0778
 31,0.00338,0.1573417,0.0030356,0.0001054,0.0030345,0.0098661,-0.009783
 1,0.0000078,-0.0050531,0.1029559,0.1714061,0.0018938,-0.0004515,0.0019
 264,0.0782998,0.0056989,-0.0003312,-0.0009122,-0.0365203,0.1656206,0.0
 036319,-0.0004495,0.0036963,-0.0118861,0.0164395,0.0000057,-0.0069963,
 0.0798703,0.3248111,-0.0011874,0.0019084,-0.0012285,0.3789032,-0.09963
 81,0.0012051,-0.064163,0.2517445\Polar=54.5452969,-0.8731193,96.550671
 5,0.1977386,-5.3726215,109.4764527\Quadrupole=-3.3090061,5.3586866,-2.
 0496806,-0.1816171,0.0575886,-2.6978435\PG=C01 [X(C6H7N1O2)]\NImag=0\\
 0.58661007,0.00055496,0.55403769,0.00137027,-0.06780989,0.56718235,-0.
 05947802,0.00217916,0.00109132,0.14566185,0.00218768,-0.17049279,-0.06
 245826,-0.01184112,0.72404482,0.00120401,-0.06806841,-0.17646437,-0.00
 036363,0.06927781,0.76993144,-0.00442414,0.00027625,0.00010027,-0.0655
 1168,0.00469612,-0.00046395,0.13326504,0.00031313,-0.01991808,-0.00353
 182,0.00470695,-0.29142860,0.01885877,-0.01087362,0.65846239,0.0005491
 1,-0.02525388,0.01144660,-0.00030785,0.01169898,-0.10190748,0.00169486
 ,-0.02823050,0.80061967,0.00118968,0.00012796,-0.00009577,0.01388167,0
 .00157205,0.00017952,-0.06778107,0.00159896,0.00214473,0.13229229,0.00
 012484,-0.00445989,0.00453701,0.00163776,-0.06645674,-0.01234100,0.001
 58657,-0.15470297,-0.12328641,-0.01476652,0.85286166,-0.00014500,0.006
 98410,0.00039485,0.00096828,-0.05037680,-0.03221177,0.00191001,-0.1122
 9060,-0.29430642,-0.00053805,0.06562962,0.60529505,0.00417890,-0.00002
 234,-0.00007992,0.01397834,0.00049557,0.00125169,0.01269806,-0.0000024
 7,-0.00147974,-0.06443471,0.00342975,-0.00188619,0.12291266,-0.0000234
 4,0.00559916,0.00322956,0.00041028,-0.01112019,-0.06720057,0.00010899,
 0.01240645,0.06528259,0.00336224,-0.22060531,0.07954239,-0.00951967,0.
 58838821,-0.00010654,0.00450748,-0.00340452,0.00012989,-0.01304785,-0.
 06751841,-0.00001761,-0.00535241,-0.06249523,-0.00274605,0.12090727,-0
 .21219439,0.00011372,0.05471777,0.86126665,-0.00397036,-0.00022689,0.0
 0049557,-0.06366533,0.00135097,-0.00166180,0.01533945,0.00147225,-0.00
 066037,0.01142250,0.00161974,-0.00088467,-0.06766927,0.00464890,0.0024
 7405,0.13144216,-0.00025540,0.00625747,-0.02567145,0.00138137,-0.12576
 087,0.05850368,0.00139902,-0.05016862,0.02486212,0.00172917,-0.0684993
 0,0.04547522,0.00458859,-0.30026578,-0.12854842,-0.01544272,0.87423288
 ,0.00015939,-0.00931214,-0.02372085,-0.00131426,0.04128144,-0.33243452
 ,-0.00155846,0.06864466,-0.07069365,0.00041805,-0.01777363,0.04404660,
 0.00175643,-0.09395681,-0.17523614,0.00206151,-0.05844644,0.63888420,-
 0.00103273,-0.00001863,-0.00003763,-0.00691994,0.00040542,-0.00087902,
 -0.07120860,0.00116729,-0.00146593,-0.00290454,-0.00031766,-0.00008692
 ,0.00494037,-0.00010818,0.00016453,0.00220189,0.00021906,0.00030148,0.
 21821090,-0.00002240,0.00031030,0.00231261,0.00044944,-0.02511506,0.04
 199023,0.00119647,-0.12359001,0.06108382,-0.00034315,0.01371340,0.0016
 4831,-0.00008989,0.00847079,-0.00860239,0.00020419,-0.00866780,-0.0126
 0823,-0.00941853,0.68520163,-0.00011568,0.00606704,0.00537643,-0.00042
 609,0.02016956,-0.01275313,-0.00156204,0.06337675,-0.20567681,-0.00029
 996,0.01140885,-0.04066361,0.00048349,-0.02384035,-0.00111993,0.000101
 25,-0.00273122,0.02769135,-0.00184786,0.12798339,0.93824825,-0.0021778
 7,0.00009129,-0.00000497,-0.00089019,-0.00000443,0.00002198,0.02208460
 ,0.00007346,0.00003490,0.00397218,0.00011232,-0.00012142,-0.00154396,-
 0.00011052,-0.00002671,0.00006444,-0.00000861,0.00008020,-0.08191710,0
 .00315439,0.00453341,0.03521076,0.00009198,-0.00660373,0.00020630,0.00
 000733,-0.00128262,-0.00021263,0.00007595,0.01778220,-0.00828355,0.000
 11798,-0.00124957,0.00616205,-0.00012132,0.00444741,0.00125073,-0.0000
 1551,0.00039366,-0.00473722,0.00315853,-0.24657808,-0.24224502,-0.0050
 7515,0.29845940,0.00002773,-0.00144065,-0.00336179,0.00020408,-0.00920
 480,0.01110462,0.00034155,-0.02187566,-0.07335440,-0.00012740,0.006824
 56,0.01003568,-0.00021140,0.00995538,-0.00350118,-0.00000120,-0.001036
 19,-0.01349728,0.00460840,-0.24724431,-0.58425711,-0.00595651,0.320612
 83,0.65891572,0.00058964,0.00001345,0.00000012,0.00292137,-0.00007935,
 -0.00003950,0.01167026,0.00111568,-0.00045086,0.00046442,0.00003716,0.
 00012940,-0.00031298,0.00009899,-0.00002783,-0.00024734,0.00002051,-0.
 00010391,-0.06639647,0.00417858,0.00015911,0.02912296,0.00200941,0.001
 12413,0.03620974,0.00001592,-0.00021670,-0.00017787,-0.00008656,0.0070
 2185,0.00134902,0.00106946,-0.04011563,0.02079776,0.00002800,-0.001273
 65,-0.00652802,0.00010337,-0.00520665,0.00150616,0.00002558,-0.0010297
 5,0.00505588,0.00415904,-0.27437765,-0.01204959,0.00201516,-0.07371912
 ,-0.05671334,-0.00898225,0.47626073,0.00003300,-0.00173888,-0.00160623
 ,-0.00003842,0.00121786,-0.00652149,-0.00086297,0.04190197,-0.00094121
 ,-0.00003628,0.00165886,-0.00101592,-0.00000975,0.00061429,0.00064644,
 -0.00007001,0.00328610,-0.00095812,-0.00058034,0.02527119,-0.12775784,
 0.00140985,-0.07129981,0.00260183,0.00291315,-0.11144171,0.60156602,-0
 .05068381,0.00454998,-0.00235218,-0.00179174,0.00054322,-0.00016304,0.
 00074458,-0.00003083,0.00007210,0.00034979,0.00002862,-0.00000421,-0.0
 0029872,-0.00000227,0.00000747,0.00035264,-0.00002381,-0.00005710,-0.0
 0018400,-0.00001411,-0.00000067,0.00107182,0.00002930,-0.00000436,-0.0
 0024156,0.00000039,-0.00000230,0.04557127,0.00452781,-0.26160520,0.109
 18048,0.00060891,-0.03058373,0.00882160,-0.00003688,0.00219238,-0.0038
 2189,0.00003136,-0.00115743,0.00011806,-0.00000157,-0.00024401,-0.0003
 1087,-0.00001533,0.00133717,0.00287050,-0.00001215,0.00039718,-0.00015
 060,0.00002613,-0.00018267,0.00019403,-0.00000060,-0.00021010,0.000161
 57,-0.00524204,0.29041221,-0.00262995,0.12265127,-0.11221175,0.0006538
 8,-0.03083226,0.00911290,0.00000307,-0.00050723,-0.00349656,0.00003045
 ,-0.00153724,-0.00048311,0.00001191,-0.00053391,0.00032149,0.00004654,
 -0.00214985,0.00157344,0.00001971,-0.00113906,-0.00269146,-0.00005224,
 0.00247390,0.00070946,-0.00001219,0.00067637,0.00055372,0.00256177,-0.
 11826140,0.12111317,-0.23444308,-0.02708714,0.12858238,0.00629535,0.00
 293961,-0.00059906,0.00059403,-0.00038950,-0.00011498,-0.00014569,0.00
 004769,0.00069216,-0.00033366,0.00075531,-0.00019388,-0.00014104,-0.00
 034723,-0.00193288,-0.00010260,0.00114869,0.00234773,0.00060010,-0.002
 09976,-0.00077961,-0.00017561,-0.00072853,-0.00048839,0.00286673,-0.00
 029497,-0.00294382,0.24636005,-0.03271077,-0.05337016,0.02341123,0.020
 92588,-0.00031762,-0.02373098,0.00073440,0.00174919,0.00186677,-0.0001
 9233,0.00018658,-0.00269055,-0.00008974,-0.00251262,-0.00087886,0.0017
 0681,-0.00133195,0.00324595,0.00060239,-0.00111962,-0.00330848,-0.0000
 3834,0.00004872,0.00222317,-0.00012828,0.00033920,0.00038120,-0.023751
 72,-0.00099222,0.01469804,0.03033272,0.05689265,0.12552874,0.01817133,
 -0.13373759,0.01761886,-0.00253096,-0.02256211,-0.00011140,0.00192908,
 0.00058941,-0.00005892,0.00006794,-0.00138562,-0.00064974,-0.00130170,
 -0.00082765,0.00193456,-0.00239258,0.00145256,0.00034312,-0.00006453,0
 .00010756,-0.00064320,0.00062996,-0.00031834,0.00009506,-0.00022944,0.
 00006839,0.01045337,0.00148067,-0.00691318,-0.13960811,-0.01392697,0.1
 5203066,-0.23744312,0.01956953,-0.12909888,0.00721256,-0.00263586,0.00
 147819,0.00061048,0.00034815,0.00003825,-0.00015264,-0.00006176,-0.000
 58522,-0.00030650,-0.00066899,0.00022883,-0.00008700,0.00039069,0.0018
 0267,-0.00004012,-0.00110498,-0.00220923,0.00051431,0.00211995,0.00068
 543,-0.00020770,0.00070518,0.00047280,0.00184329,0.00041647,0.00230715
 ,-0.02144507,0.00348464,-0.01489213,0.24946278,0.02521024,-0.05121956,
 0.01800961,-0.02069222,-0.00129078,-0.02362076,-0.00077431,0.00173389,
 0.00187187,0.00016940,0.00019215,-0.00271689,0.00017771,-0.00253577,-0
 .00087119,-0.00164489,-0.00138655,0.00332827,-0.00056805,-0.00118999,-
 0.00339697,0.00006076,0.00013349,0.00225350,0.00010743,0.00037265,0.00
 040011,0.02391844,0.00000556,0.01472758,-0.00439643,0.00056410,-0.0016
 5380,-0.02245011,0.05472535,-0.12583038,0.01291899,-0.13289683,-0.0175
 9745,-0.00324582,-0.02250809,0.00003196,0.00193048,0.00058971,0.000052
 27,0.00007038,-0.00138392,0.00070106,-0.00127156,-0.00083076,-0.001829
 12,-0.00247199,0.00145294,-0.00033960,-0.00007504,0.00011542,0.0006142
 3,0.00064952,-0.00032271,-0.00008477,-0.00023527,0.00006715,-0.0105364
 0,0.00104655,-0.00688746,0.01505678,-0.00104969,0.01152229,0.13974412,
 -0.00808838,0.15110873,0.00189835,0.00003903,-0.00000851,0.00361408,0.
 00005620,0.00000105,0.00065401,0.00006862,-0.00004096,-0.03171131,0.00
 660680,0.00096444,0.00156891,0.00023827,0.00015746,0.00465492,0.000145
 87,-0.00006321,-0.00318291,-0.00004482,0.00001033,0.00045967,0.0000063
 5,0.00000420,0.00007257,0.00000669,-0.00002535,0.00005729,0.00000044,0
 .00000220,-0.00000240,-0.00033446,-0.00013975,-0.00001596,0.00033358,0
 .00014025,0.02401975,0.00004053,-0.00004173,0.00034496,0.00005851,0.00
 068690,-0.00085792,0.00011505,-0.00469029,0.00254695,0.00660130,-0.355
 44531,-0.04963424,0.00019575,-0.00844091,-0.00683642,0.00014302,-0.002
 07597,0.00237848,-0.00004406,-0.00109565,-0.00028763,0.00000508,0.0002
 0894,-0.00016997,0.00000697,-0.00018252,0.00116739,0.00000084,0.000006
 65,-0.00013674,-0.00000277,0.00000003,-0.00001557,0.00000210,0.0000138
 9,-0.00000983,-0.00707201,0.37071353,0.00001451,-0.00076995,0.00113689
 ,0.00004828,-0.00311664,-0.00566636,0.00051434,-0.02454908,0.00462188,
 0.00088760,-0.04574433,-0.06527544,-0.00037564,0.01891660,0.01097851,-
 0.00009563,0.00392590,-0.00397845,0.00004485,-0.00191725,0.00070604,-0
 .00001707,0.00082327,0.00041755,-0.00002863,0.00138056,-0.00058117,0.0
 0000725,-0.00038428,-0.00035861,0.00003744,-0.00003739,0.00000342,-0.0
 0003577,-0.00004003,0.00000305,-0.00101158,0.05169395,0.05662925,0.002
 20698,0.00002663,0.00001325,0.00434871,0.00019999,0.00006236,0.0049468
 5,0.00020385,-0.00008424,-0.00008024,-0.00022236,-0.00045072,-0.028508
 67,0.00061127,0.00006953,-0.00090021,-0.00014203,0.00049882,0.00194297
 ,0.00001043,0.00000028,-0.00075025,-0.00001375,-0.00002059,-0.00012555
 ,0.00000085,-0.00000135,-0.00006121,-0.00000227,-0.00000107,-0.0000202
 0,-0.00039115,-0.00030151,-0.00003598,0.00039853,0.00031003,-0.0028353
 8,-0.00006502,0.00003071,0.02278883,0.00002446,0.00095785,-0.00079872,
 0.00019605,-0.00540869,-0.00340536,0.00020651,-0.00473031,0.00351471,-
 0.00017626,0.01020258,0.02107137,0.00061609,-0.06084625,-0.03024102,-0
 .00019059,0.00630847,-0.02443439,0.00001211,0.00137311,-0.00012620,-0.
 00001327,-0.00006585,0.00097460,0.00000051,-0.00015404,0.00006739,-0.0
 0000214,0.00004675,0.00005537,-0.00000988,-0.00021687,-0.00021675,0.00
 001661,-0.00020003,-0.00020421,-0.00006757,0.00033481,-0.00122333,-0.0
 0054919,0.05216122,-0.00001078,0.00035769,0.00012179,0.00002880,-0.001
 71002,0.00042322,-0.00006833,0.00277852,-0.00133747,0.00010704,-0.0059
 4860,-0.00919361,0.00011513,-0.03244074,-0.35922010,-0.00008351,0.0036
 5081,-0.00554245,0.00001306,-0.00078385,0.00024852,-0.00000167,0.00011
 669,-0.00055164,-0.00000461,0.00023583,-0.00012615,0.00000064,-0.00002
 682,-0.00001267,-0.00003147,-0.00001532,-0.00006353,0.00003196,-0.0000
 1531,-0.00006464,0.00000027,0.00024102,0.00030965,-0.00011086,0.034030
 50,0.37510099,-0.00309853,-0.00007095,0.00002781,-0.00115971,0.0000697
 1,0.00001602,0.00323561,0.00004034,-0.00000283,0.00429662,0.00015658,0
 .00003493,0.00271203,0.00020214,-0.00022778,-0.02869661,0.00633862,-0.
 00206451,0.00307218,0.00006911,-0.00000093,-0.00025102,-0.00000829,-0.
 00000180,-0.00044429,-0.00001010,-0.00000428,0.00041672,-0.00000494,-0
 .00000090,0.00009114,-0.00016171,0.00043663,0.00008299,0.00015719,-0.0
 0043717,0.00091376,0.00002320,-0.00001574,-0.00291877,-0.00006242,0.00
 001361,0.02206840,-0.00007707,0.00056307,-0.00093988,0.00001142,-0.001
 83214,-0.00151201,0.00004128,0.00119294,-0.00063085,0.00015913,-0.0035
 9890,-0.00226624,0.00024408,-0.00812341,0.01186453,0.00635838,-0.32889
 309,0.09525671,0.00006732,-0.00019565,-0.00008990,-0.00000789,0.000131
 79,0.00011463,-0.00001105,0.00010452,0.00016217,-0.00000329,0.00057447
 ,-0.00001360,-0.00000194,0.00017787,0.00001895,-0.00000194,0.00018451,
 0.00000092,0.00002536,-0.00025746,0.00077598,-0.00006472,0.00018570,-0
 .00043407,-0.00673255,0.33978868,-0.00004639,0.00263149,0.00164047,-0.
 00069645,0.03297084,-0.00993570,0.00002858,-0.00215881,-0.00588160,0.0
 0007490,-0.00409361,-0.00134182,0.00025186,-0.01136038,0.01302637,-0.0
 0182816,0.08374747,-0.08949173,-0.00002589,0.00105339,0.00073716,0.000
 00241,-0.00009509,-0.00005549,-0.00000698,0.00035186,-0.00053391,0.000
 01753,-0.00091299,-0.00036114,-0.00000094,-0.00020419,0.00003482,0.000
 00924,-0.00020462,0.00003632,0.00001071,-0.00050708,0.00101133,-0.0000
 1505,0.00095725,-0.00010883,0.00222696,-0.10232167,0.09120762,0.000078
 05,-0.00000229,-0.00000314,0.00150268,0.00004422,-0.00004482,0.0030825
 2,0.00018773,0.00007381,-0.00065895,-0.00001953,0.00000318,0.00041919,
 -0.00000331,0.00000094,-0.00010083,0.00000691,0.00001579,0.00352069,0.
 00062658,-0.00117314,-0.00557045,-0.00028299,0.00010736,-0.01289947,0.
 00167780,-0.00270937,-0.00001310,-0.00000036,0.00000349,0.00000196,0.0
 0001167,-0.00000558,0.00000767,-0.00000728,0.00000419,-0.00016537,-0.0
 0000849,-0.00000490,0.00000212,-0.00000101,0.00000073,-0.00032052,-0.0
 0000653,-0.00000231,0.01111382,-0.00000246,0.00020231,0.00015614,0.000
 04684,-0.00066376,0.00214853,0.00017874,-0.00617492,-0.00401849,-0.000
 01928,0.00029269,-0.00012778,-0.00000391,0.00058888,-0.00006451,0.0000
 0609,-0.00044997,-0.00079303,0.00069611,-0.02753689,0.05922036,-0.0002
 8040,0.00807602,-0.00546778,0.00161285,-0.08761315,0.10819029,-0.00000
 057,0.00000298,-0.00017123,0.00013415,-0.00009730,0.00003435,-0.000129
 68,-0.00010292,0.00003494,-0.00000833,0.00026510,0.00026603,-0.0000010
 5,0.00005155,-0.00003632,-0.00000594,-0.00000288,0.00014614,-0.0022231
 4,0.11316226,-0.00000202,0.00010441,0.00010455,0.00000078,-0.00009307,
 -0.00008877,0.00002013,-0.00092412,0.00222354,0.00000787,-0.00037967,-
 0.00031655,0.00000711,-0.00035254,0.00010884,0.00000098,-0.00000317,0.
 00045209,-0.00023198,0.01109172,0.00168917,0.00012682,-0.00605195,-0.0
 0456493,-0.00366168,0.15602180,-0.46546152,0.00000013,-0.00000462,0.00
 003176,-0.00002336,0.00001607,-0.00000110,0.00002261,0.00001702,-0.000
 00120,-0.00000157,0.00008265,0.00004249,0.00000043,-0.00002122,0.00001
 691,-0.00000001,0.00001435,0.00001612,0.00373376,-0.15951765,0.4657486
 0\\0.00000256,-0.00004400,-0.00000267,-0.00001750,0.00007428,0.0000043
 4,-0.00005162,-0.00011089,-0.00007788,-0.00001879,0.00019746,-0.000036
 85,0.00000771,-0.00006503,0.00012630,0.00000128,-0.00005069,-0.0000190
 4,0.00023696,0.00008126,0.00011762,-0.00008868,-0.00010205,-0.00013318
 ,-0.00007155,0.00001781,0.00005116,-0.00000068,-0.00001375,-0.00001096
 ,0.00000372,0.00000325,-0.00001820,-0.00000565,0.00000139,-0.00002068,
 -0.00000082,0.00000050,0.00003348,0.00000177,0.00003230,0.00000557,0.0
 0000344,-0.00001014,-0.00000125,-0.00000215,-0.00001168,-0.00001776\\\
 @
 The archive entry for this job was punched.


 MY GROUP MEETINGS AREN'T VERY STRUCTURED.
     -- PROF. M. S. GORDON, OCT. 5, 1984
 Job cpu time:       0 days 11 hours  0 minutes  2.3 seconds.
 Elapsed time:       0 days  0 hours 33 minutes  1.1 seconds.
 File lengths (MBytes):  RWF=    370 Int=      0 D2E=      0 Chk=     27 Scr=      1
 Normal termination of Gaussian 16 at Tue Mar  4 18:16:48 2025.
