 Entering Gaussian System, Link 0=g16
 Initial command:
 /usr/local/gaussian16c01/g16/l1.exe "/scr/dhuang/Gau-279551.inp" -scrdir="/scr/dhuang/"
 Entering Link 1 = /usr/local/gaussian16c01/g16/l1.exe PID=    279552.
  
 Copyright (c) 1988-2019, Gaussian, Inc.  All Rights Reserved.
  
 This is part of the Gaussian(R) 16 program.  It is based on
 the Gaussian(R) 09 system (copyright 2009, Gaussian, Inc.),
 the Gaussian(R) 03 system (copyright 2003, Gaussian, Inc.),
 the Gaussian(R) 98 system (copyright 1998, Gaussian, Inc.),
 the Gaussian(R) 94 system (copyright 1995, Gaussian, Inc.),
 the Gaussian 92(TM) system (copyright 1992, Gaussian, Inc.),
 the Gaussian 90(TM) system (copyright 1990, Gaussian, Inc.),
 the Gaussian 88(TM) system (copyright 1988, Gaussian, Inc.),
 the Gaussian 86(TM) system (copyright 1986, Carnegie Mellon
 University), and the Gaussian 82(TM) system (copyright 1983,
 Carnegie Mellon University). Gaussian is a federally registered
 trademark of Gaussian, Inc.
  
 This software contains proprietary and confidential information,
 including trade secrets, belonging to Gaussian, Inc.
  
 This software is provided under written license and may be
 used, copied, transmitted, or stored only in accord with that
 written license.
  
 The following legend is applicable only to US Government
 contracts under FAR:
  
                    RESTRICTED RIGHTS LEGEND
  
 Use, reproduction and disclosure by the US Government is
 subject to restrictions as set forth in subparagraphs (a)
 and (c) of the Commercial Computer Software - Restricted
 Rights clause in FAR 52.227-19.
  
 Gaussian, Inc.
 340 Quinnipiac St., Bldg. 40, Wallingford CT 06492
  
  
 ---------------------------------------------------------------
 Warning -- This program may not be used in any manner that
 competes with the business of Gaussian, Inc. or will provide
 assistance to any competitor of Gaussian, Inc.  The licensee
 of this program is prohibited from giving any competitor of
 Gaussian, Inc. access to this program.  By using this program,
 the user acknowledges that Gaussian, Inc. is engaged in the
 business of creating and licensing software in the field of
 computational chemistry and represents and warrants to the
 licensee that it is not a competitor of Gaussian, Inc. and that
 it will not use this program in any manner prohibited above.
 ---------------------------------------------------------------
  

 Cite this work as:
 Gaussian 16, Revision C.01,
 M. J. Frisch, G. W. Trucks, H. B. Schlegel, G. E. Scuseria, 
 M. A. Robb, J. R. Cheeseman, G. Scalmani, V. Barone, 
 G. A. Petersson, H. Nakatsuji, X. Li, M. Caricato, A. V. Marenich, 
 J. Bloino, B. G. Janesko, R. Gomperts, B. Mennucci, H. P. Hratchian, 
 J. V. Ortiz, A. F. Izmaylov, J. L. Sonnenberg, D. Williams-Young, 
 F. Ding, F. Lipparini, F. Egidi, J. Goings, B. Peng, A. Petrone, 
 T. Henderson, D. Ranasinghe, V. G. Zakrzewski, J. Gao, N. Rega, 
 G. Zheng, W. Liang, M. Hada, M. Ehara, K. Toyota, R. Fukuda, 
 J. Hasegawa, M. Ishida, T. Nakajima, Y. Honda, O. Kitao, H. Nakai, 
 T. Vreven, K. Throssell, J. A. Montgomery, Jr., J. E. Peralta, 
 F. Ogliaro, M. J. Bearpark, J. J. Heyd, E. N. Brothers, K. N. Kudin, 
 V. N. Staroverov, T. A. Keith, R. Kobayashi, J. Normand, 
 K. Raghavachari, A. P. Rendell, J. C. Burant, S. S. Iyengar, 
 J. Tomasi, M. Cossi, J. M. Millam, M. Klene, C. Adamo, R. Cammi, 
 J. W. Ochterski, R. L. Martin, K. Morokuma, O. Farkas, 
 J. B. Foresman, and D. J. Fox, Gaussian, Inc., Wallingford CT, 2019.
 
 ******************************************
 Gaussian 16:  ES64L-G16RevC.01  3-Jul-2019
                 4-Mar-2025 
 ******************************************
 %nprocshared=20
 Will use up to   20 processors via shared memory.
 %mem=10000MW
 %chk=14.chk
 ------------------------------------
 # opt freq m062x/aug-cc-pvtz pop=nbo
 ------------------------------------
 1/18=20,19=15,26=3,38=1/1,3;
 2/9=110,12=2,17=6,18=5,40=1/2;
 3/5=16,6=1,7=10,11=2,25=1,30=1,71=1,74=-55/1,2,3;
 4//1;
 5/5=2,38=5/2;
 6/7=2,8=2,9=2,10=2,28=1,40=1/1,7;
 7//1,2,3,16;
 1/18=20,19=15,26=3/3(2);
 2/9=110/2;
 99//99;
 2/9=110/2;
 3/5=16,6=1,7=10,11=2,25=1,30=1,71=1,74=-55/1,2,3;
 4/5=5,16=3,69=1/1;
 5/5=2,38=5/2;
 7//1,2,3,16;
 1/18=20,19=15,26=3/3(-5);
 2/9=110/2;
 6/7=2,8=2,9=2,10=2,19=2,28=1,40=1/1,7;
 99/9=1/99;
 --
 14
 --
 Symbolic Z-matrix:
 Charge =  0 Multiplicity = 1
 C                    -2.49858  -0.93317   2.89147 
 N                    -1.23541  -1.52812   2.42489 
 C                    -0.85844  -1.71469   1.22282 
 N                     0.29403  -2.2531    1.26046 
 C                     0.61023  -2.39075   2.47805 
 C                    -0.37017  -1.92572   3.26029 
 C                    -1.5091   -1.4204    0.0562 
 O                    -0.97988  -1.67622  -1.01166 
 O                    -2.7377   -0.8471    0.0257 
 H                    -2.56113  -0.89337   4.00242 
 H                    -2.59266   0.11765   2.53464 
 H                    -3.36779  -1.54018   2.55042 
 H                     1.55917  -2.83182   2.80847 
 H                    -0.45472  -1.87692   4.35002 
 H                    -3.04318  -0.71184  -0.88061 
 

 GradGradGradGradGradGradGradGradGradGradGradGradGradGradGradGradGradGrad
 Berny optimization.
 Initialization pass.
                           ----------------------------
                           !    Initial Parameters    !
                           ! (Angstroms and Degrees)  !
 --------------------------                            --------------------------
 ! Name  Definition              Value          Derivative Info.                !
 --------------------------------------------------------------------------------
 ! R1    R(1,2)                  1.4722         estimate D2E/DX2                !
 ! R2    R(1,10)                 1.1134         estimate D2E/DX2                !
 ! R3    R(1,11)                 1.1137         estimate D2E/DX2                !
 ! R4    R(1,12)                 1.1137         estimate D2E/DX2                !
 ! R5    R(2,3)                  1.2735         estimate D2E/DX2                !
 ! R6    R(2,6)                  1.2667         estimate D2E/DX2                !
 ! R7    R(3,4)                  1.2726         estimate D2E/DX2                !
 ! R8    R(3,7)                  1.3678         estimate D2E/DX2                !
 ! R9    R(4,5)                  1.2655         estimate D2E/DX2                !
 ! R10   R(5,6)                  1.3377         estimate D2E/DX2                !
 ! R11   R(5,13)                 1.0974         estimate D2E/DX2                !
 ! R12   R(6,14)                 1.0941         estimate D2E/DX2                !
 ! R13   R(7,8)                  1.2189         estimate D2E/DX2                !
 ! R14   R(7,9)                  1.3561         estimate D2E/DX2                !
 ! R15   R(9,15)                 0.9659         estimate D2E/DX2                !
 ! A1    A(2,1,10)             112.265          estimate D2E/DX2                !
 ! A2    A(2,1,11)             110.6245         estimate D2E/DX2                !
 ! A3    A(2,1,12)             110.6313         estimate D2E/DX2                !
 ! A4    A(10,1,11)            106.3318         estimate D2E/DX2                !
 ! A5    A(10,1,12)            106.3316         estimate D2E/DX2                !
 ! A6    A(11,1,12)            110.4999         estimate D2E/DX2                !
 ! A7    A(1,2,3)              127.7591         estimate D2E/DX2                !
 ! A8    A(1,2,6)              120.2589         estimate D2E/DX2                !
 ! A9    A(3,2,6)              111.9821         estimate D2E/DX2                !
 ! A10   A(2,3,4)              107.5857         estimate D2E/DX2                !
 ! A11   A(2,3,7)              129.2507         estimate D2E/DX2                !
 ! A12   A(4,3,7)              123.1637         estimate D2E/DX2                !
 ! A13   A(3,4,5)              107.5029         estimate D2E/DX2                !
 ! A14   A(4,5,6)              109.9809         estimate D2E/DX2                !
 ! A15   A(4,5,13)             123.3327         estimate D2E/DX2                !
 ! A16   A(6,5,13)             126.6864         estimate D2E/DX2                !
 ! A17   A(2,6,5)              102.9485         estimate D2E/DX2                !
 ! A18   A(2,6,14)             126.1624         estimate D2E/DX2                !
 ! A19   A(5,6,14)             130.8891         estimate D2E/DX2                !
 ! A20   A(3,7,8)              119.7029         estimate D2E/DX2                !
 ! A21   A(3,7,9)              122.7579         estimate D2E/DX2                !
 ! A22   A(8,7,9)              117.5392         estimate D2E/DX2                !
 ! A23   A(7,9,15)             111.5194         estimate D2E/DX2                !
 ! D1    D(10,1,2,3)          -179.9435         estimate D2E/DX2                !
 ! D2    D(10,1,2,6)             0.0501         estimate D2E/DX2                !
 ! D3    D(11,1,2,3)           -61.3396         estimate D2E/DX2                !
 ! D4    D(11,1,2,6)           118.654          estimate D2E/DX2                !
 ! D5    D(12,1,2,3)            61.4483         estimate D2E/DX2                !
 ! D6    D(12,1,2,6)          -118.5581         estimate D2E/DX2                !
 ! D7    D(1,2,3,4)            179.98           estimate D2E/DX2                !
 ! D8    D(1,2,3,7)             -0.0121         estimate D2E/DX2                !
 ! D9    D(6,2,3,4)             -0.0141         estimate D2E/DX2                !
 ! D10   D(6,2,3,7)            179.9939         estimate D2E/DX2                !
 ! D11   D(1,2,6,5)           -179.9859         estimate D2E/DX2                !
 ! D12   D(1,2,6,14)             0.0065         estimate D2E/DX2                !
 ! D13   D(3,2,6,5)              0.0086         estimate D2E/DX2                !
 ! D14   D(3,2,6,14)          -179.999          estimate D2E/DX2                !
 ! D15   D(2,3,4,5)              0.0133         estimate D2E/DX2                !
 ! D16   D(7,3,4,5)           -179.994          estimate D2E/DX2                !
 ! D17   D(2,3,7,8)            179.9613         estimate D2E/DX2                !
 ! D18   D(2,3,7,9)             -0.0438         estimate D2E/DX2                !
 ! D19   D(4,3,7,8)             -0.0296         estimate D2E/DX2                !
 ! D20   D(4,3,7,9)            179.9652         estimate D2E/DX2                !
 ! D21   D(3,4,5,6)             -0.0083         estimate D2E/DX2                !
 ! D22   D(3,4,5,13)           179.9866         estimate D2E/DX2                !
 ! D23   D(4,5,6,2)              0.0            estimate D2E/DX2                !
 ! D24   D(4,5,6,14)          -179.992          estimate D2E/DX2                !
 ! D25   D(13,5,6,2)          -179.9947         estimate D2E/DX2                !
 ! D26   D(13,5,6,14)            0.0134         estimate D2E/DX2                !
 ! D27   D(3,7,9,15)           180.0            estimate D2E/DX2                !
 ! D28   D(8,7,9,15)            -0.005          estimate D2E/DX2                !
 --------------------------------------------------------------------------------
 Trust Radius=3.00D-01 FncErr=1.00D-07 GrdErr=1.00D-06 EigMax=2.50D+02 EigMin=1.00D-04
 Number of steps in this run=     76 maximum allowed number of steps=    100.
 GradGradGradGradGradGradGradGradGradGradGradGradGradGradGradGradGradGrad

                          Input orientation:                          
 ---------------------------------------------------------------------
 Center     Atomic      Atomic             Coordinates (Angstroms)
 Number     Number       Type             X           Y           Z
 ---------------------------------------------------------------------
      1          6           0       -2.498576   -0.933173    2.891473
      2          7           0       -1.235414   -1.528121    2.424887
      3          6           0       -0.858441   -1.714685    1.222823
      4          7           0        0.294029   -2.253101    1.260458
      5          6           0        0.610230   -2.390749    2.478045
      6          6           0       -0.370170   -1.925723    3.260291
      7          6           0       -1.509100   -1.420400    0.056200
      8          8           0       -0.979880   -1.676221   -1.011656
      9          8           0       -2.737700   -0.847100    0.025700
     10          1           0       -2.561129   -0.893366    4.002425
     11          1           0       -2.592656    0.117650    2.534644
     12          1           0       -3.367790   -1.540177    2.550419
     13          1           0        1.559174   -2.831818    2.808471
     14          1           0       -0.454716   -1.876916    4.350019
     15          1           0       -3.043177   -0.711845   -0.880605
 ---------------------------------------------------------------------
                    Distance matrix (angstroms):
                    1          2          3          4          5
     1  C    0.000000
     2  N    1.472157   0.000000
     3  C    2.466819   1.273528   0.000000
     4  N    3.493002   2.054431   1.272594   0.000000
     5  C    3.458341   2.037978   2.046861   1.265484   0.000000
     6  C    2.377245   1.266741   2.105759   2.132527   1.337663
     7  C    3.042240   2.386878   1.367834   2.322693   3.361320
     8  O    4.253584   3.449212   2.238107   2.667984   3.900900
     9  O    2.877020   2.911487   2.391113   3.562702   4.427808
    10  H    1.113423   2.156168   3.361532   4.185593   3.824057
    11  H    1.113736   2.136052   2.843559   3.946766   4.068630
    12  H    1.113689   2.136102   2.844256   3.947300   4.068581
    13  H    4.480745   3.107488   3.099537   2.081310   1.097369
    14  H    2.682419   2.106485   3.157320   3.201176   2.214141
    15  H    3.817611   3.854944   3.194240   4.254006   5.238954
                    6          7          8          9         10
     6  C    0.000000
     7  C    3.437836   0.000000
     8  O    4.322445   1.218948   0.000000
     9  O    4.151049   1.356120   2.203061   0.000000
    10  H    2.533145   4.117915   5.315469   3.980912   0.000000
    11  H    3.105058   3.111652   4.288970   2.691947   1.782562
    12  H    3.104559   3.112909   4.290571   2.692875   1.782522
    13  H    2.178880   4.356765   4.730282   5.490542   4.707443
    14  H    1.094092   4.444887   5.391070   4.997227   2.350568
    15  H    5.075972   1.932109   2.281313   0.965919   4.910122
                   11         12         13         14         15
    11  H    0.000000
    12  H    1.830156   0.000000
    13  H    5.100200   5.099990   0.000000
    14  H    3.441609   3.440633   2.709974   0.000000
    15  H    3.543297   3.544494   6.267791   5.951215   0.000000
 Stoichiometry    C5H6N2O2
 Framework group  C1[X(C5H6N2O2)]
 Deg. of freedom    39
 Full point group                 C1      NOp   1
 Largest Abelian subgroup         C1      NOp   1
 Largest concise Abelian subgroup C1      NOp   1
                         Standard orientation:                         
 ---------------------------------------------------------------------
 Center     Atomic      Atomic             Coordinates (Angstroms)
 Number     Number       Type             X           Y           Z
 ---------------------------------------------------------------------
      1          6           0       -0.612598    2.033578    0.000453
      2          7           0       -0.847422    0.580270    0.000035
      3          6           0        0.022136   -0.350182   -0.000049
      4          7           0       -0.601654   -1.459407   -0.000024
      5          6           0       -1.840173   -1.199561   -0.000208
      6          6           0       -2.029389    0.124652   -0.000175
      7          6           0        1.386945   -0.259250   -0.000002
      8          8           0        2.059986   -1.275541    0.000615
      9          8           0        2.043290    0.927456   -0.000720
     10          1           0       -1.562520    2.614402    0.001448
     11          1           0       -0.056655    2.340877    0.915277
     12          1           0       -0.058064    2.341741   -0.914878
     13          1           0       -2.618587   -1.973052   -0.000450
     14          1           0       -2.949488    0.716644   -0.000176
     15          1           0        3.001106    0.802602   -0.000565
 ---------------------------------------------------------------------
 Rotational constants (GHZ):           3.0077918           1.7061797           1.0966175
 Standard basis: Aug-CC-pVTZ (5D, 7F)
 There are   645 symmetry adapted cartesian basis functions of A   symmetry.
 There are   552 symmetry adapted basis functions of A   symmetry.
   552 basis functions,   810 primitive gaussians,   645 cartesian basis functions
    33 alpha electrons       33 beta electrons
       nuclear repulsion energy       457.3819708462 Hartrees.
 NAtoms=   15 NActive=   15 NUniq=   15 SFac= 1.00D+00 NAtFMM=   60 NAOKFM=F Big=F
 Integral buffers will be    131072 words long.
 Raffenetti 2 integral format.
 Two-electron integral symmetry is turned on.
 One-electron integrals computed using PRISM.
 NBasis=   552 RedAO= T EigKep=  1.80D-06  NBF=   552
 NBsUse=   552 1.00D-06 EigRej= -1.00D+00 NBFU=   552
 ExpMin= 2.53D-02 ExpMax= 1.53D+04 ExpMxC= 5.22D+02 IAcc=3 IRadAn=         5 AccDes= 0.00D+00
 Harris functional with IExCor= 1009 and IRadAn=       5 diagonalized for initial guess.
 HarFok:  IExCor= 1009 AccDes= 0.00D+00 IRadAn=         5 IDoV= 1 UseB2=F ITyADJ=14
 ICtDFT=  3500011 ScaDFX=  1.000000  1.000000  1.000000  1.000000
 FoFCou: FMM=F IPFlag=           0 FMFlag=      100000 FMFlg1=           0
         NFxFlg=           0 DoJE=T BraDBF=F KetDBF=T FulRan=T
         wScrn=  0.000000 ICntrl=       500 IOpCl=  0 I1Cent=   200000004 NGrid=           0
         NMat0=    1 NMatS0=      1 NMatT0=    0 NMatD0=    1 NMtDS0=    0 NMtDT0=    0
 Petite list used in FoFCou.
 Requested convergence on RMS density matrix=1.00D-08 within 128 cycles.
 Requested convergence on MAX density matrix=1.00D-06.
 Requested convergence on             energy=1.00D-06.
 No special actions if energy rises.
 SCF Done:  E(RM062X) =  -454.050425494     A.U. after   14 cycles
            NFock= 14  Conv=0.50D-08     -V/T= 2.0025

 **********************************************************************

            Population analysis using the SCF Density.

 **********************************************************************

 Orbital symmetries:
       Occupied  (A) (A) (A) (A) (A) (A) (A) (A) (A) (A) (A) (A)
                 (A) (A) (A) (A) (A) (A) (A) (A) (A) (A) (A) (A)
                 (A) (A) (A) (A) (A) (A) (A) (A) (A)
       Virtual   (A) (A) (A) (A) (A) (A) (A) (A) (A) (A) (A) (A)
                 (A) (A) (A) (A) (A) (A) (A) (A) (A) (A) (A) (A)
                 (A) (A) (A) (A) (A) (A) (A) (A) (A) (A) (A) (A)
                 (A) (A) (A) (A) (A) (A) (A) (A) (A) (A) (A) (A)
                 (A) (A) (A) (A) (A) (A) (A) (A) (A) (A) (A) (A)
                 (A) (A) (A) (A) (A) (A) (A) (A) (A) (A) (A) (A)
                 (A) (A) (A) (A) (A) (A) (A) (A) (A) (A) (A) (A)
                 (A) (A) (A) (A) (A) (A) (A) (A) (A) (A) (A) (A)
                 (A) (A) (A) (A) (A) (A) (A) (A) (A) (A) (A) (A)
                 (A) (A) (A) (A) (A) (A) (A) (A) (A) (A) (A) (A)
                 (A) (A) (A) (A) (A) (A) (A) (A) (A) (A) (A) (A)
                 (A) (A) (A) (A) (A) (A) (A) (A) (A) (A) (A) (A)
                 (A) (A) (A) (A) (A) (A) (A) (A) (A) (A) (A) (A)
                 (A) (A) (A) (A) (A) (A) (A) (A) (A) (A) (A) (A)
                 (A) (A) (A) (A) (A) (A) (A) (A) (A) (A) (A) (A)
                 (A) (A) (A) (A) (A) (A) (A) (A) (A) (A) (A) (A)
                 (A) (A) (A) (A) (A) (A) (A) (A) (A) (A) (A) (A)
                 (A) (A) (A) (A) (A) (A) (A) (A) (A) (A) (A) (A)
                 (A) (A) (A) (A) (A) (A) (A) (A) (A) (A) (A) (A)
                 (A) (A) (A) (A) (A) (A) (A) (A) (A) (A) (A) (A)
                 (A) (A) (A) (A) (A) (A) (A) (A) (A) (A) (A) (A)
                 (A) (A) (A) (A) (A) (A) (A) (A) (A) (A) (A) (A)
                 (A) (A) (A) (A) (A) (A) (A) (A) (A) (A) (A) (A)
                 (A) (A) (A) (A) (A) (A) (A) (A) (A) (A) (A) (A)
                 (A) (A) (A) (A) (A) (A) (A) (A) (A) (A) (A) (A)
                 (A) (A) (A) (A) (A) (A) (A) (A) (A) (A) (A) (A)
                 (A) (A) (A) (A) (A) (A) (A) (A) (A) (A) (A) (A)
                 (A) (A) (A) (A) (A) (A) (A) (A) (A) (A) (A) (A)
                 (A) (A) (A) (A) (A) (A) (A) (A) (A) (A) (A) (A)
                 (A) (A) (A) (A) (A) (A) (A) (A) (A) (A) (A) (A)
                 (A) (A) (A) (A) (A) (A) (A) (A) (A) (A) (A) (A)
                 (A) (A) (A) (A) (A) (A) (A) (A) (A) (A) (A) (A)
                 (A) (A) (A) (A) (A) (A) (A) (A) (A) (A) (A) (A)
                 (A) (A) (A) (A) (A) (A) (A) (A) (A) (A) (A) (A)
                 (A) (A) (A) (A) (A) (A) (A) (A) (A) (A) (A) (A)
                 (A) (A) (A) (A) (A) (A) (A) (A) (A) (A) (A) (A)
                 (A) (A) (A) (A) (A) (A) (A) (A) (A) (A) (A) (A)
                 (A) (A) (A) (A) (A) (A) (A) (A) (A) (A) (A) (A)
                 (A) (A) (A) (A) (A) (A) (A) (A) (A) (A) (A) (A)
                 (A) (A) (A) (A) (A) (A) (A) (A) (A) (A) (A) (A)
                 (A) (A) (A) (A) (A) (A) (A) (A) (A) (A) (A) (A)
                 (A) (A) (A) (A) (A) (A) (A) (A) (A) (A) (A) (A)
                 (A) (A) (A) (A) (A) (A) (A) (A) (A) (A) (A) (A)
                 (A) (A) (A)
 The electronic state is 1-A.
 Alpha  occ. eigenvalues --  -19.67535 -19.60205 -14.83256 -14.72619 -10.67519
 Alpha  occ. eigenvalues --  -10.60854 -10.58944 -10.57157 -10.54913  -1.24271
 Alpha  occ. eigenvalues --   -1.21714  -1.12965  -1.03532  -0.91203  -0.84114
 Alpha  occ. eigenvalues --   -0.77248  -0.72538  -0.67441  -0.64837  -0.60742
 Alpha  occ. eigenvalues --   -0.57526  -0.56813  -0.53103  -0.51800  -0.50636
 Alpha  occ. eigenvalues --   -0.49905  -0.48226  -0.46929  -0.39768  -0.36712
 Alpha  occ. eigenvalues --   -0.35743  -0.34052  -0.30503
 Alpha virt. eigenvalues --   -0.01593  -0.01170  -0.00192   0.00694   0.01266
 Alpha virt. eigenvalues --    0.01992   0.02825   0.03683   0.04429   0.04966
 Alpha virt. eigenvalues --    0.05962   0.06807   0.06907   0.07041   0.07548
 Alpha virt. eigenvalues --    0.07841   0.08615   0.09224   0.09415   0.10076
 Alpha virt. eigenvalues --    0.10455   0.10699   0.11079   0.11360   0.11994
 Alpha virt. eigenvalues --    0.12039   0.13777   0.15450   0.15624   0.15963
 Alpha virt. eigenvalues --    0.16429   0.17094   0.17176   0.17628   0.18209
 Alpha virt. eigenvalues --    0.18387   0.19053   0.19650   0.19940   0.20958
 Alpha virt. eigenvalues --    0.21735   0.22050   0.22721   0.23948   0.24261
 Alpha virt. eigenvalues --    0.24850   0.25048   0.25497   0.25976   0.26442
 Alpha virt. eigenvalues --    0.27224   0.27658   0.28240   0.28925   0.29018
 Alpha virt. eigenvalues --    0.29720   0.29937   0.30378   0.30536   0.30927
 Alpha virt. eigenvalues --    0.31466   0.33387   0.33510   0.33858   0.34165
 Alpha virt. eigenvalues --    0.34389   0.35154   0.37319   0.37349   0.37609
 Alpha virt. eigenvalues --    0.38422   0.39293   0.39402   0.39641   0.40462
 Alpha virt. eigenvalues --    0.40737   0.41280   0.41506   0.42062   0.42605
 Alpha virt. eigenvalues --    0.42894   0.43618   0.43962   0.44910   0.45366
 Alpha virt. eigenvalues --    0.45440   0.45944   0.48403   0.49388   0.49558
 Alpha virt. eigenvalues --    0.50467   0.52318   0.52644   0.53319   0.54393
 Alpha virt. eigenvalues --    0.54861   0.55486   0.56213   0.56391   0.57046
 Alpha virt. eigenvalues --    0.57993   0.59397   0.60157   0.60380   0.61540
 Alpha virt. eigenvalues --    0.62079   0.62629   0.62668   0.64916   0.65601
 Alpha virt. eigenvalues --    0.66843   0.67863   0.67924   0.69272   0.70131
 Alpha virt. eigenvalues --    0.70869   0.71300   0.71543   0.72493   0.73941
 Alpha virt. eigenvalues --    0.74206   0.74561   0.75161   0.75614   0.75829
 Alpha virt. eigenvalues --    0.76308   0.76561   0.78384   0.78954   0.80056
 Alpha virt. eigenvalues --    0.80465   0.80909   0.81377   0.82030   0.82857
 Alpha virt. eigenvalues --    0.83542   0.84780   0.84859   0.85270   0.86176
 Alpha virt. eigenvalues --    0.86940   0.88003   0.88810   0.89515   0.90317
 Alpha virt. eigenvalues --    0.91243   0.91282   0.92398   0.93203   0.93963
 Alpha virt. eigenvalues --    0.94021   0.94826   0.95519   0.97597   0.97784
 Alpha virt. eigenvalues --    0.98857   0.99682   1.00099   1.00535   1.01290
 Alpha virt. eigenvalues --    1.02502   1.03194   1.04101   1.04724   1.05365
 Alpha virt. eigenvalues --    1.05692   1.06433   1.07474   1.07821   1.09487
 Alpha virt. eigenvalues --    1.10201   1.11582   1.12202   1.12547   1.13780
 Alpha virt. eigenvalues --    1.14133   1.15845   1.16139   1.17108   1.17996
 Alpha virt. eigenvalues --    1.19269   1.20246   1.20978   1.21489   1.23297
 Alpha virt. eigenvalues --    1.24351   1.24669   1.25164   1.26097   1.26661
 Alpha virt. eigenvalues --    1.28248   1.29447   1.30492   1.30893   1.31273
 Alpha virt. eigenvalues --    1.32946   1.33472   1.34549   1.35044   1.36682
 Alpha virt. eigenvalues --    1.37209   1.39103   1.40343   1.40883   1.43467
 Alpha virt. eigenvalues --    1.43759   1.43956   1.46631   1.46691   1.48360
 Alpha virt. eigenvalues --    1.49166   1.49938   1.51070   1.51359   1.51577
 Alpha virt. eigenvalues --    1.53260   1.54047   1.54547   1.54752   1.56050
 Alpha virt. eigenvalues --    1.56293   1.56576   1.58883   1.60421   1.61405
 Alpha virt. eigenvalues --    1.62097   1.64723   1.65520   1.67178   1.67858
 Alpha virt. eigenvalues --    1.69858   1.70232   1.72045   1.72108   1.73369
 Alpha virt. eigenvalues --    1.75126   1.77186   1.78247   1.80183   1.80430
 Alpha virt. eigenvalues --    1.81047   1.82833   1.84357   1.85078   1.85820
 Alpha virt. eigenvalues --    1.86176   1.86766   1.88412   1.89031   1.91725
 Alpha virt. eigenvalues --    1.92310   1.94736   1.95058   1.95737   1.96579
 Alpha virt. eigenvalues --    1.98976   1.98986   2.02380   2.03340   2.04815
 Alpha virt. eigenvalues --    2.06727   2.07787   2.09534   2.09802   2.10475
 Alpha virt. eigenvalues --    2.12532   2.12549   2.14517   2.16648   2.17391
 Alpha virt. eigenvalues --    2.17969   2.20137   2.22533   2.24266   2.24906
 Alpha virt. eigenvalues --    2.25230   2.26859   2.27231   2.28528   2.30331
 Alpha virt. eigenvalues --    2.32796   2.33837   2.34266   2.39647   2.41863
 Alpha virt. eigenvalues --    2.42008   2.43385   2.44023   2.44094   2.44832
 Alpha virt. eigenvalues --    2.45745   2.47136   2.49758   2.50758   2.51198
 Alpha virt. eigenvalues --    2.54960   2.58378   2.58404   2.59887   2.61573
 Alpha virt. eigenvalues --    2.68040   2.68276   2.70531   2.72299   2.73527
 Alpha virt. eigenvalues --    2.76770   2.78406   2.80413   2.83631   2.85201
 Alpha virt. eigenvalues --    2.87295   2.88435   2.90776   2.91196   2.94714
 Alpha virt. eigenvalues --    2.95668   2.98723   3.02142   3.02336   3.05971
 Alpha virt. eigenvalues --    3.06706   3.08795   3.09429   3.10422   3.10617
 Alpha virt. eigenvalues --    3.13996   3.16987   3.19149   3.22043   3.22681
 Alpha virt. eigenvalues --    3.24717   3.27567   3.28523   3.29310   3.30770
 Alpha virt. eigenvalues --    3.31633   3.33927   3.35218   3.37214   3.39234
 Alpha virt. eigenvalues --    3.39997   3.42758   3.42878   3.43711   3.44493
 Alpha virt. eigenvalues --    3.46142   3.48258   3.49078   3.50018   3.50457
 Alpha virt. eigenvalues --    3.53401   3.55116   3.55699   3.56808   3.60647
 Alpha virt. eigenvalues --    3.61059   3.62471   3.63006   3.65431   3.65953
 Alpha virt. eigenvalues --    3.67234   3.69766   3.69857   3.71224   3.71979
 Alpha virt. eigenvalues --    3.73061   3.75785   3.77400   3.78930   3.80584
 Alpha virt. eigenvalues --    3.80857   3.82789   3.85525   3.86683   3.88200
 Alpha virt. eigenvalues --    3.88696   3.89943   3.93302   3.93361   3.95666
 Alpha virt. eigenvalues --    3.95759   3.96870   3.98681   4.01352   4.02360
 Alpha virt. eigenvalues --    4.02692   4.05983   4.06810   4.09970   4.12168
 Alpha virt. eigenvalues --    4.12902   4.16220   4.18041   4.19180   4.20471
 Alpha virt. eigenvalues --    4.22296   4.26617   4.26848   4.28510   4.29685
 Alpha virt. eigenvalues --    4.30007   4.33390   4.38129   4.38616   4.39383
 Alpha virt. eigenvalues --    4.41658   4.46376   4.48556   4.48820   4.53253
 Alpha virt. eigenvalues --    4.54432   4.55000   4.56575   4.58361   4.61308
 Alpha virt. eigenvalues --    4.62107   4.63475   4.63641   4.65867   4.68993
 Alpha virt. eigenvalues --    4.70464   4.73043   4.74319   4.76207   4.77387
 Alpha virt. eigenvalues --    4.77941   4.80199   4.81962   4.84358   4.85622
 Alpha virt. eigenvalues --    4.90973   4.93802   4.94973   5.01710   5.03321
 Alpha virt. eigenvalues --    5.04556   5.08642   5.11750   5.12373   5.14279
 Alpha virt. eigenvalues --    5.16942   5.18388   5.19770   5.22733   5.28707
 Alpha virt. eigenvalues --    5.30102   5.30659   5.32762   5.35776   5.37551
 Alpha virt. eigenvalues --    5.46014   5.46403   5.48268   5.51734   5.52470
 Alpha virt. eigenvalues --    5.53883   5.56202   5.60186   5.61580   5.64648
 Alpha virt. eigenvalues --    5.67777   5.70132   5.70564   5.73237   5.80293
 Alpha virt. eigenvalues --    5.80770   5.82080   5.88855   5.95479   6.02753
 Alpha virt. eigenvalues --    6.14965   6.18339   6.20767   6.21496   6.22835
 Alpha virt. eigenvalues --    6.23631   6.26898   6.29078   6.36518   6.39143
 Alpha virt. eigenvalues --    6.39314   6.41563   6.42059   6.47930   6.52155
 Alpha virt. eigenvalues --    6.53303   6.56947   6.60854   6.66730   6.71926
 Alpha virt. eigenvalues --    6.72639   6.79462   6.81979   6.85054   6.85320
 Alpha virt. eigenvalues --    6.85994   6.91703   6.95041   6.98122   7.09069
 Alpha virt. eigenvalues --    7.09841   7.11458   7.14736   7.23087   7.35949
 Alpha virt. eigenvalues --    7.41379   7.56090   7.70019   7.88433   8.08314
 Alpha virt. eigenvalues --   15.10779  15.86679  17.04194  18.01899  18.21762
 Alpha virt. eigenvalues --   18.87786  19.29604  20.49085  21.33989
          Condensed to atoms (all electrons):
               1          2          3          4          5          6
     1  C    6.097421   0.359216  -0.144210  -0.047969   0.049865  -0.330556
     2  N    0.359216   6.952852   0.064734  -0.445785   0.028298   0.079117
     3  C   -0.144210   0.064734   8.012603  -0.809590  -0.476267  -0.959464
     4  N   -0.047969  -0.445785  -0.809590   9.269329  -0.123402   0.466030
     5  C    0.049865   0.028298  -0.476267  -0.123402   6.912724  -0.307675
     6  C   -0.330556   0.079117  -0.959464   0.466030  -0.307675   7.618817
     7  C   -0.024331  -0.331019  -0.466862  -0.225893  -0.006957  -0.111876
     8  O    0.004398  -0.002155   0.099075  -0.211689  -0.007807   0.002739
     9  O   -0.030577  -0.157835   0.155619  -0.033704   0.011696  -0.028450
    10  H    0.408663  -0.039262   0.012335  -0.028351   0.009439  -0.015719
    11  H    0.342547   0.005501   0.006150   0.008556  -0.003473   0.011815
    12  H    0.342640   0.005542   0.006059   0.008509  -0.003435   0.011798
    13  H    0.000780   0.037139   0.066591  -0.171825   0.273915  -0.095176
    14  H   -0.046973  -0.144814  -0.046907   0.067256  -0.089627   0.177315
    15  H    0.000630   0.008902  -0.068775   0.015623  -0.002711   0.001318
               7          8          9         10         11         12
     1  C   -0.024331   0.004398  -0.030577   0.408663   0.342547   0.342640
     2  N   -0.331019  -0.002155  -0.157835  -0.039262   0.005501   0.005542
     3  C   -0.466862   0.099075   0.155619   0.012335   0.006150   0.006059
     4  N   -0.225893  -0.211689  -0.033704  -0.028351   0.008556   0.008509
     5  C   -0.006957  -0.007807   0.011696   0.009439  -0.003473  -0.003435
     6  C   -0.111876   0.002739  -0.028450  -0.015719   0.011815   0.011798
     7  C    6.671498  -0.006873   0.015432   0.014344  -0.026669  -0.026647
     8  O   -0.006873   9.154912  -0.102061  -0.000616   0.002082   0.002094
     9  O    0.015432  -0.102061   8.540950  -0.003971   0.006004   0.005998
    10  H    0.014344  -0.000616  -0.003971   0.509083  -0.034550  -0.034443
    11  H   -0.026669   0.002082   0.006004  -0.034550   0.325298   0.032321
    12  H   -0.026647   0.002094   0.005998  -0.034443   0.032321   0.325030
    13  H    0.005268  -0.000746   0.000121   0.001443  -0.000564  -0.000564
    14  H    0.009332   0.000922   0.001309  -0.032871   0.000886   0.000891
    15  H    0.081969  -0.071155   0.147113   0.000914  -0.001624  -0.001620
              13         14         15
     1  C    0.000780  -0.046973   0.000630
     2  N    0.037139  -0.144814   0.008902
     3  C    0.066591  -0.046907  -0.068775
     4  N   -0.171825   0.067256   0.015623
     5  C    0.273915  -0.089627  -0.002711
     6  C   -0.095176   0.177315   0.001318
     7  C    0.005268   0.009332   0.081969
     8  O   -0.000746   0.000922  -0.071155
     9  O    0.000121   0.001309   0.147113
    10  H    0.001443  -0.032871   0.000914
    11  H   -0.000564   0.000886  -0.001624
    12  H   -0.000564   0.000891  -0.001620
    13  H    0.420847  -0.037479  -0.000188
    14  H   -0.037479   0.478862  -0.000174
    15  H   -0.000188  -0.000174   0.601130
 Mulliken charges:
               1
     1  C   -0.981545
     2  N    0.579569
     3  C    0.548908
     4  N   -0.737097
     5  C   -0.264586
     6  C   -0.520034
     7  C    0.429282
     8  O   -0.863119
     9  O   -0.527644
    10  H    0.233562
    11  H    0.325720
    12  H    0.325827
    13  H    0.500439
    14  H    0.662072
    15  H    0.288648
 Sum of Mulliken charges =   0.00000
 Mulliken charges with hydrogens summed into heavy atoms:
               1
     1  C   -0.096437
     2  N    0.579569
     3  C    0.548908
     4  N   -0.737097
     5  C    0.235853
     6  C    0.142037
     7  C    0.429282
     8  O   -0.863119
     9  O   -0.238996
 Electronic spatial extent (au):  <R**2>=           1030.3587
 Charge=              0.0000 electrons
 Dipole moment (field-independent basis, Debye):
    X=             -2.3435    Y=              5.5485    Z=             -0.0004  Tot=              6.0231
 Quadrupole moment (field-independent basis, Debye-Ang):
   XX=            -44.2118   YY=            -54.6859   ZZ=            -52.0140
   XY=              3.9915   XZ=             -0.0021   YZ=              0.0046
 Traceless Quadrupole moment (field-independent basis, Debye-Ang):
   XX=              6.0921   YY=             -4.3820   ZZ=             -1.7101
   XY=              3.9915   XZ=             -0.0021   YZ=              0.0046
 Octapole moment (field-independent basis, Debye-Ang**2):
  XXX=             14.3675  YYY=             23.6117  ZZZ=              0.0001  XYY=            -11.5165
  XXY=             17.5754  XXZ=             -0.0103  XZZ=              7.7043  YZZ=              2.5479
  YYZ=             -0.0003  XYZ=              0.0028
 Hexadecapole moment (field-independent basis, Debye-Ang**3):
 XXXX=           -638.4779 YYYY=           -494.9084 ZZZZ=            -58.1049 XXXY=             50.4456
 XXXZ=             -0.0286 YYYX=              5.4930 YYYZ=              0.0071 ZZZX=             -0.0013
 ZZZY=             -0.0052 XXYY=           -205.6222 XXZZ=           -146.8942 YYZZ=            -91.9032
 XXYZ=              0.0158 YYXZ=             -0.0056 ZZXY=             -0.9086
 N-N= 4.573819708462D+02 E-N=-1.976531960267D+03  KE= 4.529045776855D+02
 ******************************Gaussian NBO Version 3.1******************************
             N A T U R A L   A T O M I C   O R B I T A L   A N D
          N A T U R A L   B O N D   O R B I T A L   A N A L Y S I S
 ******************************Gaussian NBO Version 3.1******************************
       /RESON  / : Allow strongly delocalized NBO set

 Analyzing the SCF density

 Job title: 14                                                              

 Storage needed:    916440 in NPA,   1220743 in NBO (********** available)
 GSVD:  LWork=        2070 too small for GESVD, short by      599715 words or      599715 for optimal perf.


 NATURAL POPULATIONS:  Natural atomic orbital occupancies 
                                                          
   NAO  Atom  No  lang   Type(AO)    Occupancy      Energy
 ----------------------------------------------------------
     1    C    1  S      Cor( 1S)     1.99945     -10.47981
     2    C    1  S      Val( 2S)     1.09437      -0.34191
     3    C    1  S      Ryd( 4S)     0.00103       1.19372
     4    C    1  S      Ryd( 5S)     0.00006       4.96211
     5    C    1  S      Ryd( 3S)     0.00003       0.90878
     6    C    1  px     Val( 2p)     1.21257      -0.16592
     7    C    1  px     Ryd( 3p)     0.00214       1.17044
     8    C    1  px     Ryd( 5p)     0.00009       1.99780
     9    C    1  px     Ryd( 4p)     0.00002       1.17139
    10    C    1  py     Val( 2p)     0.84288      -0.10199
    11    C    1  py     Ryd( 4p)     0.00164       1.20652
    12    C    1  py     Ryd( 5p)     0.00011       1.64465
    13    C    1  py     Ryd( 3p)     0.00002       1.20092
    14    C    1  pz     Val( 2p)     1.22307      -0.16688
    15    C    1  pz     Ryd( 4p)     0.00070       1.06023
    16    C    1  pz     Ryd( 5p)     0.00006       1.86282
    17    C    1  pz     Ryd( 3p)     0.00001       0.94151
    18    C    1  dxy    Ryd( 4d)     0.00085       1.87349
    19    C    1  dxy    Ryd( 5d)     0.00008       3.58318
    20    C    1  dxy    Ryd( 3d)     0.00003       1.31893
    21    C    1  dxz    Ryd( 4d)     0.00198       1.63926
    22    C    1  dxz    Ryd( 5d)     0.00002       3.42491
    23    C    1  dxz    Ryd( 3d)     0.00001       1.29614
    24    C    1  dyz    Ryd( 4d)     0.00084       1.52936
    25    C    1  dyz    Ryd( 5d)     0.00005       3.23711
    26    C    1  dyz    Ryd( 3d)     0.00003       1.05245
    27    C    1  dx2y2  Ryd( 4d)     0.00120       2.21553
    28    C    1  dx2y2  Ryd( 5d)     0.00007       3.68331
    29    C    1  dx2y2  Ryd( 3d)     0.00002       1.30115
    30    C    1  dz2    Ryd( 4d)     0.00198       1.87383
    31    C    1  dz2    Ryd( 5d)     0.00006       3.61336
    32    C    1  dz2    Ryd( 3d)     0.00002       1.58118
    33    C    1  f(0)   Ryd( 5f)     0.00001       3.84709
    34    C    1  f(0)   Ryd( 4f)     0.00001       2.17738
    35    C    1  f(C1)  Ryd( 5f)     0.00017       4.03449
    36    C    1  f(C1)  Ryd( 4f)     0.00002       3.17978
    37    C    1  f(S1)  Ryd( 5f)     0.00005       4.17589
    38    C    1  f(S1)  Ryd( 4f)     0.00006       3.20435
    39    C    1  f(C2)  Ryd( 5f)     0.00002       3.91844
    40    C    1  f(C2)  Ryd( 4f)     0.00003       2.32119
    41    C    1  f(S2)  Ryd( 5f)     0.00002       3.92584
    42    C    1  f(S2)  Ryd( 4f)     0.00002       2.46309
    43    C    1  f(C3)  Ryd( 5f)     0.00005       4.25784
    44    C    1  f(C3)  Ryd( 4f)     0.00002       2.44884
    45    C    1  f(S3)  Ryd( 5f)     0.00004       4.29426
    46    C    1  f(S3)  Ryd( 4f)     0.00005       2.95536
 
    47    N    2  S      Cor( 1S)     1.99912     -14.61325
    48    N    2  S      Val( 2S)     1.14922      -0.55192
    49    N    2  S      Ryd( 3S)     0.00185       2.25826
    50    N    2  S      Ryd( 4S)     0.00004       2.81617
    51    N    2  S      Ryd( 5S)     0.00001       9.38644
    52    N    2  px     Val( 2p)     1.31780      -0.31850
    53    N    2  px     Ryd( 4p)     0.00202       2.37131
    54    N    2  px     Ryd( 5p)     0.00009       4.73086
    55    N    2  px     Ryd( 3p)     0.00004       1.39896
    56    N    2  py     Val( 2p)     1.29974      -0.31379
    57    N    2  py     Ryd( 4p)     0.00390       3.01831
    58    N    2  py     Ryd( 5p)     0.00006       5.39170
    59    N    2  py     Ryd( 3p)     0.00005       1.08173
    60    N    2  pz     Val( 2p)     1.48211      -0.32582
    61    N    2  pz     Ryd( 4p)     0.00307       0.86382
    62    N    2  pz     Ryd( 5p)     0.00002       3.46085
    63    N    2  pz     Ryd( 3p)     0.00002       0.74349
    64    N    2  dxy    Ryd( 4d)     0.00248       4.95141
    65    N    2  dxy    Ryd( 5d)     0.00028       5.00924
    66    N    2  dxy    Ryd( 3d)     0.00008       3.70929
    67    N    2  dxz    Ryd( 3d)     0.00193       1.65088
    68    N    2  dxz    Ryd( 5d)     0.00002       3.81778
    69    N    2  dxz    Ryd( 4d)     0.00004       2.75584
    70    N    2  dyz    Ryd( 3d)     0.00063       1.65902
    71    N    2  dyz    Ryd( 5d)     0.00020       3.82488
    72    N    2  dyz    Ryd( 4d)     0.00006       2.79015
    73    N    2  dx2y2  Ryd( 4d)     0.00071       4.24137
    74    N    2  dx2y2  Ryd( 5d)     0.00048       4.86841
    75    N    2  dx2y2  Ryd( 3d)     0.00011       4.10234
    76    N    2  dz2    Ryd( 3d)     0.00204       2.62633
    77    N    2  dz2    Ryd( 5d)     0.00022       4.16379
    78    N    2  dz2    Ryd( 4d)     0.00013       4.11548
    79    N    2  f(0)   Ryd( 4f)     0.00184       1.66503
    80    N    2  f(0)   Ryd( 5f)     0.00011       4.86434
    81    N    2  f(C1)  Ryd( 4f)     0.00164       2.15747
    82    N    2  f(C1)  Ryd( 5f)     0.00008       4.91325
    83    N    2  f(S1)  Ryd( 4f)     0.00207       2.54889
    84    N    2  f(S1)  Ryd( 5f)     0.00010       4.97699
    85    N    2  f(C2)  Ryd( 4f)     0.00109       1.67304
    86    N    2  f(C2)  Ryd( 5f)     0.00009       4.95827
    87    N    2  f(S2)  Ryd( 4f)     0.00035       1.65519
    88    N    2  f(S2)  Ryd( 5f)     0.00006       4.97010
    89    N    2  f(C3)  Ryd( 4f)     0.00127       2.49913
    90    N    2  f(C3)  Ryd( 5f)     0.00018       5.56652
    91    N    2  f(S3)  Ryd( 4f)     0.00114       2.80635
    92    N    2  f(S3)  Ryd( 5f)     0.00013       5.44496
 
    93    C    3  S      Cor( 1S)     1.99894     -10.42388
    94    C    3  S      Val( 2S)     0.79438      -0.01476
    95    C    3  S      Ryd( 4S)     0.00266       1.84854
    96    C    3  S      Ryd( 5S)     0.00016       3.82628
    97    C    3  S      Ryd( 3S)     0.00003       1.50025
    98    C    3  px     Val( 2p)     1.03922      -0.09309
    99    C    3  px     Ryd( 5p)     0.00396       2.42147
   100    C    3  px     Ryd( 4p)     0.00028       2.34626
   101    C    3  px     Ryd( 3p)     0.00015       0.60705
   102    C    3  py     Val( 2p)     0.90293      -0.04439
   103    C    3  py     Ryd( 4p)     0.00717       1.77840
   104    C    3  py     Ryd( 5p)     0.00054       1.98923
   105    C    3  py     Ryd( 3p)     0.00017       0.64963
   106    C    3  pz     Val( 2p)     1.10246      -0.14644
   107    C    3  pz     Ryd( 4p)     0.00452       1.02141
   108    C    3  pz     Ryd( 5p)     0.00015       1.49486
   109    C    3  pz     Ryd( 3p)     0.00006       0.39813
   110    C    3  dxy    Ryd( 3d)     0.00123       1.35364
   111    C    3  dxy    Ryd( 4d)     0.00068       4.50996
   112    C    3  dxy    Ryd( 5d)     0.00011       5.36372
   113    C    3  dxz    Ryd( 3d)     0.00051       0.98926
   114    C    3  dxz    Ryd( 5d)     0.00039       3.34437
   115    C    3  dxz    Ryd( 4d)     0.00004       2.65665
   116    C    3  dyz    Ryd( 3d)     0.00048       0.73730
   117    C    3  dyz    Ryd( 5d)     0.00063       3.32468
   118    C    3  dyz    Ryd( 4d)     0.00009       2.75358
   119    C    3  dx2y2  Ryd( 3d)     0.00206       1.57421
   120    C    3  dx2y2  Ryd( 4d)     0.00061       4.19685
   121    C    3  dx2y2  Ryd( 5d)     0.00005       4.81532
   122    C    3  dz2    Ryd( 3d)     0.00165       0.98316
   123    C    3  dz2    Ryd( 4d)     0.00041       4.67440
   124    C    3  dz2    Ryd( 5d)     0.00006       5.27098
   125    C    3  f(0)   Ryd( 4f)     0.00062       1.42300
   126    C    3  f(0)   Ryd( 5f)     0.00014       3.65346
   127    C    3  f(C1)  Ryd( 4f)     0.00116       1.93683
   128    C    3  f(C1)  Ryd( 5f)     0.00015       4.15680
   129    C    3  f(S1)  Ryd( 4f)     0.00076       1.76794
   130    C    3  f(S1)  Ryd( 5f)     0.00005       3.88472
   131    C    3  f(C2)  Ryd( 4f)     0.00097       1.52909
   132    C    3  f(C2)  Ryd( 5f)     0.00002       3.67055
   133    C    3  f(S2)  Ryd( 4f)     0.00106       1.32449
   134    C    3  f(S2)  Ryd( 5f)     0.00001       3.71078
   135    C    3  f(C3)  Ryd( 4f)     0.00140       2.70060
   136    C    3  f(C3)  Ryd( 5f)     0.00013       4.53438
   137    C    3  f(S3)  Ryd( 4f)     0.00274       2.24665
   138    C    3  f(S3)  Ryd( 5f)     0.00015       4.78846
 
   139    N    4  S      Cor( 1S)     1.99938     -14.49151
   140    N    4  S      Val( 2S)     1.33634      -0.53770
   141    N    4  S      Ryd( 4S)     0.00103       3.26464
   142    N    4  S      Ryd( 3S)     0.00020       1.48199
   143    N    4  S      Ryd( 5S)     0.00002      10.33830
   144    N    4  px     Val( 2p)     1.26238      -0.17138
   145    N    4  px     Ryd( 4p)     0.00321       2.46512
   146    N    4  px     Ryd( 3p)     0.00008       1.14919
   147    N    4  px     Ryd( 5p)     0.00005       4.16556
   148    N    4  py     Val( 2p)     1.55227      -0.22693
   149    N    4  py     Ryd( 4p)     0.00434       1.68862
   150    N    4  py     Ryd( 3p)     0.00010       0.89831
   151    N    4  py     Ryd( 5p)     0.00010       4.51030
   152    N    4  pz     Val( 2p)     1.17402      -0.18342
   153    N    4  pz     Ryd( 4p)     0.00062       1.19533
   154    N    4  pz     Ryd( 3p)     0.00003       0.71254
   155    N    4  pz     Ryd( 5p)     0.00001       3.07812
   156    N    4  dxy    Ryd( 4d)     0.00688       2.58257
   157    N    4  dxy    Ryd( 5d)     0.00021       5.37238
   158    N    4  dxy    Ryd( 3d)     0.00008       2.07911
   159    N    4  dxz    Ryd( 4d)     0.00095       1.47389
   160    N    4  dxz    Ryd( 5d)     0.00010       5.00354
   161    N    4  dxz    Ryd( 3d)     0.00003       1.39299
   162    N    4  dyz    Ryd( 3d)     0.00538       1.24399
   163    N    4  dyz    Ryd( 5d)     0.00009       4.88190
   164    N    4  dyz    Ryd( 4d)     0.00008       1.31124
   165    N    4  dx2y2  Ryd( 4d)     0.00599       2.71515
   166    N    4  dx2y2  Ryd( 5d)     0.00016       5.44997
   167    N    4  dx2y2  Ryd( 3d)     0.00016       1.95385
   168    N    4  dz2    Ryd( 3d)     0.00999       1.60978
   169    N    4  dz2    Ryd( 5d)     0.00004       5.25647
   170    N    4  dz2    Ryd( 4d)     0.00007       2.04599
   171    N    4  f(0)   Ryd( 5f)     0.00018       3.73487
   172    N    4  f(0)   Ryd( 4f)     0.00001       3.46343
   173    N    4  f(C1)  Ryd( 5f)     0.00011       4.44614
   174    N    4  f(C1)  Ryd( 4f)     0.00004       4.31842
   175    N    4  f(S1)  Ryd( 5f)     0.00013       4.32015
   176    N    4  f(S1)  Ryd( 4f)     0.00001       3.89523
   177    N    4  f(C2)  Ryd( 4f)     0.00001       3.69008
   178    N    4  f(C2)  Ryd( 5f)     0.00005       3.70107
   179    N    4  f(S2)  Ryd( 4f)     0.00006       3.70409
   180    N    4  f(S2)  Ryd( 5f)     0.00001       3.78837
   181    N    4  f(C3)  Ryd( 5f)     0.00021       5.19480
   182    N    4  f(C3)  Ryd( 4f)     0.00009       4.57866
   183    N    4  f(S3)  Ryd( 5f)     0.00006       4.94153
   184    N    4  f(S3)  Ryd( 4f)     0.00016       4.35505
 
   185    C    5  S      Cor( 1S)     1.99919     -10.39219
   186    C    5  S      Val( 2S)     0.91635      -0.15657
   187    C    5  S      Ryd( 4S)     0.00306       1.89526
   188    C    5  S      Ryd( 3S)     0.00012       1.80441
   189    C    5  S      Ryd( 5S)     0.00008       1.98705
   190    C    5  px     Val( 2p)     1.00292      -0.04464
   191    C    5  px     Ryd( 5p)     0.00648       1.72361
   192    C    5  px     Ryd( 3p)     0.00019       1.34040
   193    C    5  px     Ryd( 4p)     0.00008       1.53240
   194    C    5  py     Val( 2p)     1.07819      -0.06712
   195    C    5  py     Ryd( 5p)     0.00591       1.75214
   196    C    5  py     Ryd( 4p)     0.00012       1.21710
   197    C    5  py     Ryd( 3p)     0.00008       1.12248
   198    C    5  pz     Val( 2p)     1.03458      -0.12133
   199    C    5  pz     Ryd( 5p)     0.00188       1.12851
   200    C    5  pz     Ryd( 4p)     0.00006       1.02848
   201    C    5  pz     Ryd( 3p)     0.00007       0.75807
   202    C    5  dxy    Ryd( 3d)     0.00278       1.99671
   203    C    5  dxy    Ryd( 5d)     0.00019       3.57891
   204    C    5  dxy    Ryd( 4d)     0.00007       2.47122
   205    C    5  dxz    Ryd( 4d)     0.00088       1.44707
   206    C    5  dxz    Ryd( 5d)     0.00016       3.08228
   207    C    5  dxz    Ryd( 3d)     0.00003       1.34865
   208    C    5  dyz    Ryd( 4d)     0.00070       1.40670
   209    C    5  dyz    Ryd( 5d)     0.00001       3.04012
   210    C    5  dyz    Ryd( 3d)     0.00002       1.24832
   211    C    5  dx2y2  Ryd( 4d)     0.00114       2.80875
   212    C    5  dx2y2  Ryd( 5d)     0.00039       3.89300
   213    C    5  dx2y2  Ryd( 3d)     0.00003       1.56417
   214    C    5  dz2    Ryd( 3d)     0.00143       2.26384
   215    C    5  dz2    Ryd( 5d)     0.00014       3.99870
   216    C    5  dz2    Ryd( 4d)     0.00004       2.79419
   217    C    5  f(0)   Ryd( 5f)     0.00017       3.48757
   218    C    5  f(0)   Ryd( 4f)     0.00002       2.18800
   219    C    5  f(C1)  Ryd( 5f)     0.00012       3.72768
   220    C    5  f(C1)  Ryd( 4f)     0.00003       2.65868
   221    C    5  f(S1)  Ryd( 5f)     0.00020       3.63420
   222    C    5  f(S1)  Ryd( 4f)     0.00003       2.94749
   223    C    5  f(C2)  Ryd( 5f)     0.00001       3.63547
   224    C    5  f(C2)  Ryd( 4f)     0.00001       2.16574
   225    C    5  f(S2)  Ryd( 5f)     0.00002       3.65956
   226    C    5  f(S2)  Ryd( 4f)     0.00003       2.22297
   227    C    5  f(C3)  Ryd( 5f)     0.00008       4.53117
   228    C    5  f(C3)  Ryd( 4f)     0.00005       4.36582
   229    C    5  f(S3)  Ryd( 5f)     0.00013       4.44249
   230    C    5  f(S3)  Ryd( 4f)     0.00006       4.36710
 
   231    C    6  S      Cor( 1S)     1.99905     -10.40930
   232    C    6  S      Val( 2S)     0.91642      -0.15759
   233    C    6  S      Ryd( 4S)     0.00170       2.06501
   234    C    6  S      Ryd( 5S)     0.00013       2.92563
   235    C    6  S      Ryd( 3S)     0.00005       1.79310
   236    C    6  px     Val( 2p)     0.99526      -0.05623
   237    C    6  px     Ryd( 4p)     0.00339       1.87238
   238    C    6  px     Ryd( 3p)     0.00010       0.85918
   239    C    6  px     Ryd( 5p)     0.00014       2.51351
   240    C    6  py     Val( 2p)     1.07718      -0.09983
   241    C    6  py     Ryd( 4p)     0.00493       1.76127
   242    C    6  py     Ryd( 3p)     0.00011       0.76173
   243    C    6  py     Ryd( 5p)     0.00004       1.97503
   244    C    6  pz     Val( 2p)     1.05875      -0.14631
   245    C    6  pz     Ryd( 4p)     0.00345       1.08453
   246    C    6  pz     Ryd( 3p)     0.00006       0.64092
   247    C    6  pz     Ryd( 5p)     0.00007       1.25763
   248    C    6  dxy    Ryd( 4d)     0.00096       2.73282
   249    C    6  dxy    Ryd( 5d)     0.00015       3.27832
   250    C    6  dxy    Ryd( 3d)     0.00004       2.55087
   251    C    6  dxz    Ryd( 4d)     0.00041       1.93186
   252    C    6  dxz    Ryd( 5d)     0.00036       2.56625
   253    C    6  dxz    Ryd( 3d)     0.00005       1.57197
   254    C    6  dyz    Ryd( 3d)     0.00078       1.82075
   255    C    6  dyz    Ryd( 5d)     0.00004       2.38014
   256    C    6  dyz    Ryd( 4d)     0.00002       1.89250
   257    C    6  dx2y2  Ryd( 4d)     0.00087       3.03564
   258    C    6  dx2y2  Ryd( 5d)     0.00032       3.39392
   259    C    6  dx2y2  Ryd( 3d)     0.00007       2.41614
   260    C    6  dz2    Ryd( 3d)     0.00080       2.86996
   261    C    6  dz2    Ryd( 5d)     0.00019       3.19967
   262    C    6  dz2    Ryd( 4d)     0.00006       3.18441
   263    C    6  f(0)   Ryd( 5f)     0.00016       3.47578
   264    C    6  f(0)   Ryd( 4f)     0.00001       2.17450
   265    C    6  f(C1)  Ryd( 5f)     0.00013       3.74451
   266    C    6  f(C1)  Ryd( 4f)     0.00003       2.98362
   267    C    6  f(S1)  Ryd( 5f)     0.00026       3.77505
   268    C    6  f(S1)  Ryd( 4f)     0.00004       2.88657
   269    C    6  f(C2)  Ryd( 5f)     0.00001       3.62094
   270    C    6  f(C2)  Ryd( 4f)     0.00003       2.34526
   271    C    6  f(S2)  Ryd( 5f)     0.00001       3.62384
   272    C    6  f(S2)  Ryd( 4f)     0.00002       2.32469
   273    C    6  f(C3)  Ryd( 5f)     0.00003       4.32588
   274    C    6  f(C3)  Ryd( 4f)     0.00009       4.26727
   275    C    6  f(S3)  Ryd( 4f)     0.00015       4.44276
   276    C    6  f(S3)  Ryd( 5f)     0.00008       4.85160
 
   277    C    7  S      Cor( 1S)     1.99914     -10.54304
   278    C    7  S      Val( 2S)     0.78778      -0.11443
   279    C    7  S      Ryd( 4S)     0.00484       1.89796
   280    C    7  S      Ryd( 3S)     0.00020       1.29028
   281    C    7  S      Ryd( 5S)     0.00003       2.35261
   282    C    7  px     Val( 2p)     0.90854      -0.04259
   283    C    7  px     Ryd( 4p)     0.00547       1.64685
   284    C    7  px     Ryd( 3p)     0.00033       0.86430
   285    C    7  px     Ryd( 5p)     0.00002       1.82642
   286    C    7  py     Val( 2p)     0.73817      -0.02382
   287    C    7  py     Ryd( 4p)     0.01126       1.65549
   288    C    7  py     Ryd( 3p)     0.00009       0.95659
   289    C    7  py     Ryd( 5p)     0.00004       2.24588
   290    C    7  pz     Val( 2p)     0.78260      -0.12794
   291    C    7  pz     Ryd( 4p)     0.00068       1.19502
   292    C    7  pz     Ryd( 3p)     0.00008       0.51484
   293    C    7  pz     Ryd( 5p)     0.00005       1.28570
   294    C    7  dxy    Ryd( 5d)     0.00062       4.14356
   295    C    7  dxy    Ryd( 3d)     0.00005       3.12372
   296    C    7  dxy    Ryd( 4d)     0.00005       3.44948
   297    C    7  dxz    Ryd( 5d)     0.00055       3.32447
   298    C    7  dxz    Ryd( 4d)     0.00006       1.90920
   299    C    7  dxz    Ryd( 3d)     0.00003       1.77386
   300    C    7  dyz    Ryd( 5d)     0.00133       3.35508
   301    C    7  dyz    Ryd( 4d)     0.00006       2.05749
   302    C    7  dyz    Ryd( 3d)     0.00001       2.05540
   303    C    7  dx2y2  Ryd( 5d)     0.00178       4.23117
   304    C    7  dx2y2  Ryd( 4d)     0.00006       3.20109
   305    C    7  dx2y2  Ryd( 3d)     0.00001       2.60292
   306    C    7  dz2    Ryd( 5d)     0.00026       4.49974
   307    C    7  dz2    Ryd( 4d)     0.00016       3.17474
   308    C    7  dz2    Ryd( 3d)     0.00005       2.89802
   309    C    7  f(0)   Ryd( 5f)     0.00015       3.66291
   310    C    7  f(0)   Ryd( 4f)     0.00003       2.32842
   311    C    7  f(C1)  Ryd( 5f)     0.00017       3.79795
   312    C    7  f(C1)  Ryd( 4f)     0.00002       3.28683
   313    C    7  f(S1)  Ryd( 5f)     0.00005       3.73539
   314    C    7  f(S1)  Ryd( 4f)     0.00006       3.22891
   315    C    7  f(C2)  Ryd( 5f)     0.00001       3.60788
   316    C    7  f(C2)  Ryd( 4f)     0.00005       2.57881
   317    C    7  f(S2)  Ryd( 5f)     0.00002       3.74355
   318    C    7  f(S2)  Ryd( 4f)     0.00001       2.89533
   319    C    7  f(C3)  Ryd( 4f)     0.00010       4.56640
   320    C    7  f(C3)  Ryd( 5f)     0.00002       8.54317
   321    C    7  f(S3)  Ryd( 5f)     0.00009       4.84495
   322    C    7  f(S3)  Ryd( 4f)     0.00002       3.92894
 
   323    O    8  S      Cor( 1S)     1.99980     -19.32323
   324    O    8  S      Val( 2S)     1.71323      -0.98922
   325    O    8  S      Ryd( 4S)     0.00128       2.86833
   326    O    8  S      Ryd( 3S)     0.00014       1.37477
   327    O    8  S      Ryd( 5S)     0.00001       9.08544
   328    O    8  px     Val( 2p)     1.74685      -0.32169
   329    O    8  px     Ryd( 4p)     0.00138       1.24858
   330    O    8  px     Ryd( 3p)     0.00005       0.56256
   331    O    8  px     Ryd( 5p)     0.00004       4.86749
   332    O    8  py     Val( 2p)     1.63682      -0.31997
   333    O    8  py     Ryd( 4p)     0.00142       1.36233
   334    O    8  py     Ryd( 3p)     0.00008       0.54589
   335    O    8  py     Ryd( 5p)     0.00005       5.35374
   336    O    8  pz     Val( 2p)     1.44950      -0.27598
   337    O    8  pz     Ryd( 4p)     0.00107       0.90483
   338    O    8  pz     Ryd( 3p)     0.00002       0.49337
   339    O    8  pz     Ryd( 5p)     0.00000       4.19670
   340    O    8  dxy    Ryd( 3d)     0.00822       2.04205
   341    O    8  dxy    Ryd( 4d)     0.00014       3.36800
   342    O    8  dxy    Ryd( 5d)     0.00003       6.34518
   343    O    8  dxz    Ryd( 3d)     0.00181       1.44641
   344    O    8  dxz    Ryd( 4d)     0.00001       1.94146
   345    O    8  dxz    Ryd( 5d)     0.00001       6.21335
   346    O    8  dyz    Ryd( 3d)     0.00516       1.51236
   347    O    8  dyz    Ryd( 4d)     0.00006       2.00133
   348    O    8  dyz    Ryd( 5d)     0.00003       6.16026
   349    O    8  dx2y2  Ryd( 3d)     0.00570       1.87724
   350    O    8  dx2y2  Ryd( 4d)     0.00003       2.40188
   351    O    8  dx2y2  Ryd( 5d)     0.00005       6.18767
   352    O    8  dz2    Ryd( 3d)     0.00288       1.61916
   353    O    8  dz2    Ryd( 4d)     0.00008       2.69848
   354    O    8  dz2    Ryd( 5d)     0.00001       6.31803
   355    O    8  f(0)   Ryd( 4f)     0.00012       3.12278
   356    O    8  f(0)   Ryd( 5f)     0.00001       5.51456
   357    O    8  f(C1)  Ryd( 4f)     0.00007       3.40001
   358    O    8  f(C1)  Ryd( 5f)     0.00001       5.64414
   359    O    8  f(S1)  Ryd( 4f)     0.00009       3.51712
   360    O    8  f(S1)  Ryd( 5f)     0.00001       5.74997
   361    O    8  f(C2)  Ryd( 4f)     0.00006       3.09228
   362    O    8  f(C2)  Ryd( 5f)     0.00000       5.74766
   363    O    8  f(S2)  Ryd( 4f)     0.00032       3.17485
   364    O    8  f(S2)  Ryd( 5f)     0.00001       5.60798
   365    O    8  f(C3)  Ryd( 4f)     0.00033       3.94779
   366    O    8  f(C3)  Ryd( 5f)     0.00001       6.10034
   367    O    8  f(S3)  Ryd( 4f)     0.00049       3.63139
   368    O    8  f(S3)  Ryd( 5f)     0.00003       5.93247
 
   369    O    9  S      Cor( 1S)     1.99978     -19.46594
   370    O    9  S      Val( 2S)     1.67088      -1.03601
   371    O    9  S      Ryd( 3S)     0.00039       1.46580
   372    O    9  S      Ryd( 4S)     0.00008       1.82996
   373    O    9  S      Ryd( 5S)     0.00001      10.57199
   374    O    9  px     Val( 2p)     1.50353      -0.37134
   375    O    9  px     Ryd( 4p)     0.00064       1.19812
   376    O    9  px     Ryd( 3p)     0.00019       0.63746
   377    O    9  px     Ryd( 5p)     0.00004       5.24481
   378    O    9  py     Val( 2p)     1.66699      -0.40393
   379    O    9  py     Ryd( 4p)     0.00095       1.06656
   380    O    9  py     Ryd( 3p)     0.00012       0.54094
   381    O    9  py     Ryd( 5p)     0.00008       5.05625
   382    O    9  pz     Val( 2p)     1.85411      -0.41994
   383    O    9  pz     Ryd( 4p)     0.00113       0.80628
   384    O    9  pz     Ryd( 3p)     0.00003       0.47884
   385    O    9  pz     Ryd( 5p)     0.00001       4.16099
   386    O    9  dxy    Ryd( 3d)     0.00499       1.86170
   387    O    9  dxy    Ryd( 4d)     0.00012       2.72218
   388    O    9  dxy    Ryd( 5d)     0.00004       6.74349
   389    O    9  dxz    Ryd( 3d)     0.00066       1.12595
   390    O    9  dxz    Ryd( 4d)     0.00008       2.02260
   391    O    9  dxz    Ryd( 5d)     0.00002       6.49438
   392    O    9  dyz    Ryd( 3d)     0.00385       1.30861
   393    O    9  dyz    Ryd( 4d)     0.00002       1.84033
   394    O    9  dyz    Ryd( 5d)     0.00003       6.51303
   395    O    9  dx2y2  Ryd( 3d)     0.00466       1.84326
   396    O    9  dx2y2  Ryd( 4d)     0.00007       2.26146
   397    O    9  dx2y2  Ryd( 5d)     0.00006       6.94573
   398    O    9  dz2    Ryd( 3d)     0.00290       1.46323
   399    O    9  dz2    Ryd( 4d)     0.00014       2.32222
   400    O    9  dz2    Ryd( 5d)     0.00001       6.74209
   401    O    9  f(0)   Ryd( 4f)     0.00050       2.78350
   402    O    9  f(0)   Ryd( 5f)     0.00001       5.92880
   403    O    9  f(C1)  Ryd( 4f)     0.00025       3.41092
   404    O    9  f(C1)  Ryd( 5f)     0.00001       6.23576
   405    O    9  f(S1)  Ryd( 4f)     0.00015       3.29759
   406    O    9  f(S1)  Ryd( 5f)     0.00001       6.08512
   407    O    9  f(C2)  Ryd( 4f)     0.00003       2.87345
   408    O    9  f(C2)  Ryd( 5f)     0.00000       6.09347
   409    O    9  f(S2)  Ryd( 4f)     0.00014       2.83366
   410    O    9  f(S2)  Ryd( 5f)     0.00002       5.97536
   411    O    9  f(C3)  Ryd( 4f)     0.00011       4.54291
   412    O    9  f(C3)  Ryd( 5f)     0.00006       6.58850
   413    O    9  f(S3)  Ryd( 4f)     0.00008       3.68573
   414    O    9  f(S3)  Ryd( 5f)     0.00002       6.43581
 
   415    H   10  S      Val( 1S)     0.78730      -0.01140
   416    H   10  S      Ryd( 4S)     0.00021       1.77463
   417    H   10  S      Ryd( 2S)     0.00012       0.57988
   418    H   10  S      Ryd( 3S)     0.00003       1.42189
   419    H   10  px     Ryd( 2p)     0.00062       1.29039
   420    H   10  px     Ryd( 4p)     0.00008       4.03497
   421    H   10  px     Ryd( 3p)     0.00001       3.13862
   422    H   10  py     Ryd( 2p)     0.00050       1.08350
   423    H   10  py     Ryd( 4p)     0.00006       4.01641
   424    H   10  py     Ryd( 3p)     0.00002       2.29965
   425    H   10  pz     Ryd( 2p)     0.00022       0.88130
   426    H   10  pz     Ryd( 4p)     0.00005       3.73846
   427    H   10  pz     Ryd( 3p)     0.00003       1.82847
   428    H   10  dxy    Ryd( 3d)     0.00010       2.20458
   429    H   10  dxy    Ryd( 4d)     0.00002       4.19252
   430    H   10  dxz    Ryd( 3d)     0.00001       1.90446
   431    H   10  dxz    Ryd( 4d)     0.00002       3.76353
   432    H   10  dyz    Ryd( 3d)     0.00002       1.85635
   433    H   10  dyz    Ryd( 4d)     0.00001       3.36192
   434    H   10  dx2y2  Ryd( 3d)     0.00004       2.20235
   435    H   10  dx2y2  Ryd( 4d)     0.00001       4.04958
   436    H   10  dz2    Ryd( 3d)     0.00009       1.96658
   437    H   10  dz2    Ryd( 4d)     0.00002       3.56204
 
   438    H   11  S      Val( 1S)     0.77616       0.00083
   439    H   11  S      Ryd( 4S)     0.00024       1.87957
   440    H   11  S      Ryd( 2S)     0.00011       0.38884
   441    H   11  S      Ryd( 3S)     0.00002       1.39972
   442    H   11  px     Ryd( 2p)     0.00046       0.98468
   443    H   11  px     Ryd( 4p)     0.00010       3.91795
   444    H   11  px     Ryd( 3p)     0.00003       2.25885
   445    H   11  py     Ryd( 2p)     0.00026       0.91974
   446    H   11  py     Ryd( 4p)     0.00003       3.93108
   447    H   11  py     Ryd( 3p)     0.00002       2.01004
   448    H   11  pz     Ryd( 2p)     0.00054       0.99883
   449    H   11  pz     Ryd( 4p)     0.00010       4.01962
   450    H   11  pz     Ryd( 3p)     0.00002       3.20192
   451    H   11  dxy    Ryd( 3d)     0.00002       2.49417
   452    H   11  dxy    Ryd( 4d)     0.00001       3.18367
   453    H   11  dxz    Ryd( 3d)     0.00009       2.46351
   454    H   11  dxz    Ryd( 4d)     0.00001       3.81302
   455    H   11  dyz    Ryd( 3d)     0.00004       2.40627
   456    H   11  dyz    Ryd( 4d)     0.00001       3.45336
   457    H   11  dx2y2  Ryd( 3d)     0.00002       2.44103
   458    H   11  dx2y2  Ryd( 4d)     0.00001       3.12785
   459    H   11  dz2    Ryd( 3d)     0.00004       2.50315
   460    H   11  dz2    Ryd( 4d)     0.00001       3.72401
 
   461    H   12  S      Val( 1S)     0.77618       0.00085
   462    H   12  S      Ryd( 4S)     0.00024       1.87960
   463    H   12  S      Ryd( 2S)     0.00011       0.38865
   464    H   12  S      Ryd( 3S)     0.00002       1.40010
   465    H   12  px     Ryd( 2p)     0.00046       0.98438
   466    H   12  px     Ryd( 4p)     0.00010       3.91747
   467    H   12  px     Ryd( 3p)     0.00003       2.25630
   468    H   12  py     Ryd( 2p)     0.00026       0.91989
   469    H   12  py     Ryd( 4p)     0.00003       3.93136
   470    H   12  py     Ryd( 3p)     0.00002       2.01040
   471    H   12  pz     Ryd( 2p)     0.00054       0.99927
   472    H   12  pz     Ryd( 4p)     0.00010       4.01987
   473    H   12  pz     Ryd( 3p)     0.00002       3.20282
   474    H   12  dxy    Ryd( 3d)     0.00002       2.49356
   475    H   12  dxy    Ryd( 4d)     0.00001       3.18357
   476    H   12  dxz    Ryd( 3d)     0.00009       2.46262
   477    H   12  dxz    Ryd( 4d)     0.00001       3.81236
   478    H   12  dyz    Ryd( 3d)     0.00004       2.40564
   479    H   12  dyz    Ryd( 4d)     0.00001       3.45547
   480    H   12  dx2y2  Ryd( 3d)     0.00002       2.44006
   481    H   12  dx2y2  Ryd( 4d)     0.00001       3.12743
   482    H   12  dz2    Ryd( 3d)     0.00004       2.50313
   483    H   12  dz2    Ryd( 4d)     0.00001       3.72559
 
   484    H   13  S      Val( 1S)     0.80179       0.03197
   485    H   13  S      Ryd( 4S)     0.00030       1.87072
   486    H   13  S      Ryd( 2S)     0.00011       0.45833
   487    H   13  S      Ryd( 3S)     0.00008       1.44871
   488    H   13  px     Ryd( 2p)     0.00084       0.75540
   489    H   13  px     Ryd( 4p)     0.00013       4.31948
   490    H   13  px     Ryd( 3p)     0.00002       3.06051
   491    H   13  py     Ryd( 2p)     0.00053       0.73777
   492    H   13  py     Ryd( 4p)     0.00011       4.28407
   493    H   13  py     Ryd( 3p)     0.00005       3.13599
   494    H   13  pz     Ryd( 2p)     0.00109       0.59649
   495    H   13  pz     Ryd( 4p)     0.00005       3.95803
   496    H   13  pz     Ryd( 3p)     0.00002       1.75756
   497    H   13  dxy    Ryd( 3d)     0.00016       2.03035
   498    H   13  dxy    Ryd( 4d)     0.00002       4.10552
   499    H   13  dxz    Ryd( 3d)     0.00005       1.86250
   500    H   13  dxz    Ryd( 4d)     0.00001       3.48015
   501    H   13  dyz    Ryd( 3d)     0.00002       1.85857
   502    H   13  dyz    Ryd( 4d)     0.00000       3.48377
   503    H   13  dx2y2  Ryd( 3d)     0.00004       2.14780
   504    H   13  dx2y2  Ryd( 4d)     0.00002       4.15429
   505    H   13  dz2    Ryd( 3d)     0.00004       2.02758
   506    H   13  dz2    Ryd( 4d)     0.00003       3.64548
 
   507    H   14  S      Val( 1S)     0.78050       0.00319
   508    H   14  S      Ryd( 4S)     0.00029       1.89378
   509    H   14  S      Ryd( 2S)     0.00015       0.54775
   510    H   14  S      Ryd( 3S)     0.00004       1.41865
   511    H   14  px     Ryd( 2p)     0.00057       0.86667
   512    H   14  px     Ryd( 4p)     0.00022       4.38637
   513    H   14  px     Ryd( 3p)     0.00005       3.37361
   514    H   14  py     Ryd( 2p)     0.00033       1.03491
   515    H   14  py     Ryd( 4p)     0.00009       4.17219
   516    H   14  py     Ryd( 3p)     0.00006       2.70496
   517    H   14  pz     Ryd( 2p)     0.00190       0.60876
   518    H   14  pz     Ryd( 4p)     0.00001       4.02132
   519    H   14  pz     Ryd( 3p)     0.00001       1.71878
   520    H   14  dxy    Ryd( 3d)     0.00008       2.17926
   521    H   14  dxy    Ryd( 4d)     0.00002       4.18210
   522    H   14  dxz    Ryd( 3d)     0.00004       1.83948
   523    H   14  dxz    Ryd( 4d)     0.00001       3.67408
   524    H   14  dyz    Ryd( 3d)     0.00002       1.75389
   525    H   14  dyz    Ryd( 4d)     0.00001       3.40929
   526    H   14  dx2y2  Ryd( 3d)     0.00006       2.03499
   527    H   14  dx2y2  Ryd( 4d)     0.00004       4.20408
   528    H   14  dz2    Ryd( 3d)     0.00007       1.99211
   529    H   14  dz2    Ryd( 4d)     0.00003       3.65026
 
   530    H   15  S      Val( 1S)     0.48733       0.13820
   531    H   15  S      Ryd( 4S)     0.00112       1.87651
   532    H   15  S      Ryd( 3S)     0.00021       1.29776
   533    H   15  S      Ryd( 2S)     0.00009       0.81016
   534    H   15  px     Ryd( 2p)     0.00043       2.05224
   535    H   15  px     Ryd( 4p)     0.00034       4.46769
   536    H   15  px     Ryd( 3p)     0.00002       3.14302
   537    H   15  py     Ryd( 2p)     0.00030       1.38214
   538    H   15  py     Ryd( 4p)     0.00006       3.64000
   539    H   15  py     Ryd( 3p)     0.00002       2.75998
   540    H   15  pz     Ryd( 2p)     0.00066       1.19622
   541    H   15  pz     Ryd( 4p)     0.00005       3.42187
   542    H   15  pz     Ryd( 3p)     0.00001       2.42861
   543    H   15  dxy    Ryd( 3d)     0.00008       1.27674
   544    H   15  dxy    Ryd( 4d)     0.00001       4.38032
   545    H   15  dxz    Ryd( 3d)     0.00014       1.14403
   546    H   15  dxz    Ryd( 4d)     0.00000       4.24755
   547    H   15  dyz    Ryd( 3d)     0.00006       1.14608
   548    H   15  dyz    Ryd( 4d)     0.00000       3.78793
   549    H   15  dx2y2  Ryd( 3d)     0.00009       1.87245
   550    H   15  dx2y2  Ryd( 4d)     0.00001       4.60668
   551    H   15  dz2    Ryd( 3d)     0.00011       1.66469
   552    H   15  dz2    Ryd( 4d)     0.00000       4.03014

 WARNING:  1 low occupancy (<1.9990e) core orbital  found on  C    3

 WARNING:  Population inversion found on atom  C    1
           Population inversion found on atom  N    2
           Population inversion found on atom  C    3
           Population inversion found on atom  N    4
           Population inversion found on atom  C    5
           Population inversion found on atom  C    6
           Population inversion found on atom  C    7
           Population inversion found on atom  O    8
           Population inversion found on atom  O    9
           Population inversion found on atom  H   10
           Population inversion found on atom  H   11
           Population inversion found on atom  H   12
           Population inversion found on atom  H   13
           Population inversion found on atom  H   14
           Population inversion found on atom  H   15


 Summary of Natural Population Analysis:                  
                                                          
                                       Natural Population 
                Natural  -----------------------------------------------
    Atom  No    Charge         Core      Valence    Rydberg      Total
 -----------------------------------------------------------------------
      C    1   -0.38608      1.99945     4.37288    0.01375     6.38608
      N    2   -0.27873      1.99912     5.24887    0.03074     7.27873
      C    3    0.12386      1.99894     3.83898    0.03821     5.87614
      N    4   -0.36553      1.99938     5.32500    0.04114     7.36553
      C    5   -0.05834      1.99919     4.03204    0.02711     6.05834
      C    6   -0.06699      1.99905     4.04762    0.02032     6.06699
      C    7    0.75483      1.99914     3.21709    0.02894     5.24517
      O    8   -0.57751      1.99980     6.54640    0.03132     8.57751
      O    9   -0.71799      1.99978     6.69551    0.02271     8.71799
      H   10    0.21042      0.00000     0.78730    0.00228     0.78958
      H   11    0.22165      0.00000     0.77616    0.00219     0.77835
      H   12    0.22163      0.00000     0.77618    0.00219     0.77837
      H   13    0.19449      0.00000     0.80179    0.00372     0.80551
      H   14    0.21541      0.00000     0.78050    0.00409     0.78459
      H   15    0.50888      0.00000     0.48733    0.00379     0.49112
 =======================================================================
   * Total *    0.00000     17.99384    47.73366    0.27249    66.00000

                                 Natural Population      
 --------------------------------------------------------
   Core                      17.99384 ( 99.9658% of  18)
   Valence                   47.73366 ( 99.4451% of  48)
   Natural Minimal Basis     65.72751 ( 99.5871% of  66)
   Natural Rydberg Basis      0.27249 (  0.4129% of  66)
 --------------------------------------------------------

    Atom  No          Natural Electron Configuration
 ----------------------------------------------------------------------------
      C    1      [core]2S( 1.09)2p( 3.28)4d( 0.01)
      N    2      [core]2S( 1.15)2p( 4.10)4p( 0.01)4f( 0.01)
      C    3      [core]2S( 0.79)2p( 3.04)3d( 0.01)4p( 0.01)4f( 0.01)
      N    4      [core]2S( 1.34)2p( 3.99)3d( 0.02)4p( 0.01)4d( 0.01)
      C    5      [core]2S( 0.92)2p( 3.12)5p( 0.01)
      C    6      [core]2S( 0.92)2p( 3.13)4p( 0.01)
      C    7      [core]2S( 0.79)2p( 2.43)4p( 0.02)
      O    8      [core]2S( 1.71)2p( 4.83)3d( 0.02)
      O    9      [core]2S( 1.67)2p( 5.02)3d( 0.02)
      H   10            1S( 0.79)
      H   11            1S( 0.78)
      H   12            1S( 0.78)
      H   13            1S( 0.80)
      H   14            1S( 0.78)
      H   15            1S( 0.49)


 NATURAL BOND ORBITAL ANALYSIS:

                       Occupancies       Lewis Structure    Low   High
           Occ.    -------------------  -----------------   occ   occ
  Cycle   Thresh.   Lewis   Non-Lewis     CR  BD  3C  LP    (L)   (NL)   Dev
 =============================================================================
   1(1)    1.90    62.76059   3.23941      9  17   0   7     8      5    0.45
   2(2)    1.90    62.76059   3.23941      9  17   0   7     8      5    0.45
   3(1)    1.80    63.44472   2.55528      9  17   0   7     2      3    0.45
   4(2)    1.80    63.51701   2.48299      9  17   0   7     2      3    0.45
   5(3)    1.80    63.51701   2.48299      9  17   0   7     2      3    0.45
   6(1)    1.70    64.11886   1.88114      9  18   0   6     1      3    0.42
   7(2)    1.70    64.10420   1.89580      9  18   0   6     1      3    0.45
   8(3)    1.70    64.11886   1.88114      9  18   0   6     1      3    0.42
   9(1)    1.60    64.11886   1.88114      9  18   0   6     1      3    0.42
  10(2)    1.60    64.10420   1.89580      9  18   0   6     1      3    0.45
  11(3)    1.60    64.11886   1.88114      9  18   0   6     1      3    0.42
  12(1)    1.50    63.63416   2.36584      9  17   0   7     1      4    0.72
  13(2)    1.50    63.63416   2.36584      9  17   0   7     1      4    0.72
  14(1)    1.70    64.11886   1.88114      9  18   0   6     1      3    0.42
 -----------------------------------------------------------------------------

 Structure accepted: RESONANCE keyword permits strongly delocalized structure

 WARNING:  1 low occupancy (<1.9990e) core orbital  found on  C    3

 --------------------------------------------------------
   Core                     17.99385 ( 99.966% of  18)
   Valence Lewis            46.12500 ( 96.094% of  48)
  ==================       ============================
   Total Lewis              64.11886 ( 97.150% of  66)
  -----------------------------------------------------
   Valence non-Lewis         1.74323 (  2.641% of  66)
   Rydberg non-Lewis         0.13791 (  0.209% of  66)
  ==================       ============================
   Total non-Lewis           1.88114 (  2.850% of  66)
 --------------------------------------------------------


       (Occupancy)   Bond orbital/ Coefficients/ Hybrids
 ---------------------------------------------------------------------------------
     1. (1.98552) BD ( 1) C   1 - N   2  
                ( 35.86%)   0.5988* C   1 s( 24.84%)p 3.02( 75.06%)d 0.00(  0.09%)
                                                  f 0.00(  0.01%)
                                            0.0002  0.4976 -0.0282 -0.0006  0.0017
                                           -0.1345 -0.0085  0.0004 -0.0007 -0.8550
                                           -0.0362  0.0059  0.0022 -0.0003  0.0000
                                            0.0000  0.0000  0.0089  0.0005  0.0003
                                            0.0000  0.0000  0.0000  0.0000  0.0000
                                            0.0000 -0.0226 -0.0084 -0.0020 -0.0134
                                           -0.0060 -0.0019  0.0000  0.0000  0.0032
                                           -0.0003 -0.0002 -0.0060  0.0000  0.0000
                                            0.0000  0.0000 -0.0020 -0.0037 -0.0008
                                           -0.0037
                ( 64.14%)   0.8009* N   2 s( 28.30%)p 2.53( 71.57%)d 0.00(  0.02%)
                                                  f 0.00(  0.11%)
                                           -0.0001  0.5319 -0.0080  0.0011 -0.0001
                                            0.1701 -0.0008 -0.0017  0.0007  0.8286
                                            0.0119 -0.0021  0.0010  0.0002  0.0000
                                            0.0000  0.0000  0.0038  0.0009 -0.0003
                                            0.0000  0.0000  0.0000  0.0000  0.0000
                                            0.0000 -0.0082 -0.0053  0.0023 -0.0099
                                           -0.0005 -0.0004  0.0000  0.0000 -0.0041
                                           -0.0012 -0.0267 -0.0053  0.0000  0.0000
                                            0.0000  0.0000 -0.0082 -0.0006 -0.0154
                                           -0.0029
     2. (1.99260) BD ( 1) C   1 - H  10  
                ( 60.58%)   0.7784* C   1 s( 24.89%)p 3.01( 74.95%)d 0.01(  0.15%)
                                                  f 0.00(  0.01%)
                                           -0.0001  0.4989  0.0059  0.0009  0.0000
                                           -0.7628  0.0143  0.0019 -0.0005  0.4092
                                            0.0071  0.0023 -0.0004  0.0008  0.0000
                                            0.0000  0.0000 -0.0216  0.0006  0.0017
                                           -0.0001  0.0000  0.0000  0.0000  0.0000
                                            0.0000  0.0242 -0.0015  0.0005 -0.0213
                                            0.0020  0.0007  0.0000  0.0000  0.0063
                                           -0.0013 -0.0006  0.0024  0.0000  0.0000
                                            0.0000  0.0000  0.0023 -0.0016  0.0045
                                           -0.0011
                ( 39.42%)   0.6278* H  10 s( 99.90%)p 0.00(  0.08%)d 0.00(  0.02%)
                                            0.9995  0.0003 -0.0004  0.0000 -0.0235
                                            0.0076 -0.0015  0.0135 -0.0065  0.0003
                                            0.0000  0.0000  0.0000  0.0100 -0.0027
                                            0.0000  0.0000  0.0000  0.0000 -0.0046
                                           -0.0005  0.0081 -0.0019
     3. (1.98889) BD ( 1) C   1 - H  11  
                ( 61.22%)   0.7824* C   1 s( 25.16%)p 2.97( 74.70%)d 0.01(  0.14%)
                                                  f 0.00(  0.01%)
                                           -0.0001  0.5016  0.0054 -0.0002 -0.0005
                                            0.4466 -0.0030 -0.0010  0.0002  0.2205
                                            0.0094  0.0033 -0.0003  0.7062 -0.0089
                                            0.0024  0.0005  0.0042 -0.0007 -0.0014
[...]
 ! D23   D(4,5,6,2)              0.0007         -DE/DX =    0.0                 !
 ! D24   D(4,5,6,14)           180.0023         -DE/DX =    0.0                 !
 ! D25   D(13,5,6,2)           180.0004         -DE/DX =    0.0                 !
 ! D26   D(13,5,6,14)            0.0019         -DE/DX =    0.0                 !
 ! D27   D(3,7,9,15)           179.9957         -DE/DX =    0.0                 !
 ! D28   D(8,7,9,15)             0.004          -DE/DX =    0.0                 !
 --------------------------------------------------------------------------------
 GradGradGradGradGradGradGradGradGradGradGradGradGradGradGradGradGradGrad


 ----------------------------------------------------------------------

 Electric dipole moment (input orientation):
 (Debye = 10**-18 statcoulomb cm , SI units = C m)
                  (au)            (Debye)         (10**-30 SI)
   Tot        0.222974D+01      0.566743D+01      0.189045D+02
   x         -0.138784D+01     -0.352753D+01     -0.117666D+02
   y          0.662719D+00      0.168446D+01      0.561877D+01
   z          0.161445D+01      0.410352D+01      0.136879D+02

 Dipole polarizability, Alpha (input orientation).
 (esu units = cm**3 , SI units = C**2 m**2 J**-1)
 Alpha(0;0):
               (au)            (10**-24 esu)      (10**-40 SI)
   iso        0.811026D+02      0.120182D+02      0.133720D+02
   aniso      0.476749D+02      0.706469D+01      0.786052D+01
   xx         0.845987D+02      0.125362D+02      0.139484D+02
   yx        -0.157927D+02     -0.234023D+01     -0.260386D+01
   yy         0.580701D+02      0.860510D+01      0.957447D+01
   zx         0.629963D+01      0.933509D+00      0.103867D+01
   zy        -0.251831D+01     -0.373175D+00     -0.415213D+00
   zz         0.100639D+03      0.149132D+02      0.165931D+02

 ----------------------------------------------------------------------

 Dipole orientation:
     6         -0.54773990         -3.75806555          6.43212220
     7          0.68682492         -4.33100204          4.04067240
     6         -0.13225904         -3.95133978          1.61558633
     7          1.53951881         -4.72688892         -0.05146317
     6          3.50486364         -5.63835436          1.30765386
     6          3.01247994         -5.40971474          3.84322753
     6         -2.56815736         -2.82170325          0.87002373
     8         -3.24820944         -2.50559098         -1.25927020
     8         -4.00479560         -2.15602728          2.88295717
     1          0.71582040         -4.34315408          7.93971079
     1         -0.91943391         -1.74580814          6.58555949
     1         -2.32334827         -4.77505407          6.58656441
     1          5.16389787         -6.40795664          0.41750156
     1          4.08857352         -5.90861720          5.49428024
     1         -5.54126058         -1.44330554          2.19895280

 Electric dipole moment (dipole orientation):
 (Debye = 10**-18 statcoulomb cm , SI units = C m)
                  (au)            (Debye)         (10**-30 SI)
   Tot        0.222974D+01      0.566743D+01      0.189045D+02
   x          0.000000D+00      0.000000D+00      0.000000D+00
   y          0.000000D+00      0.000000D+00      0.000000D+00
   z          0.222974D+01      0.566743D+01      0.189045D+02

 Dipole polarizability, Alpha (dipole orientation).
 (esu units = cm**3 , SI units = C**2 m**2 J**-1)
 Alpha(0;0):
               (au)            (10**-24 esu)      (10**-40 SI)
   iso        0.811026D+02      0.120182D+02      0.133720D+02
   aniso      0.476749D+02      0.706469D+01      0.786052D+01
   xx         0.936233D+02      0.138735D+02      0.154364D+02
   yx        -0.199042D+02     -0.294950D+01     -0.328176D+01
   yy         0.599390D+02      0.888204D+01      0.988260D+01
   zx         0.423266D+01      0.627216D+00      0.697872D+00
   zy        -0.196297D+01     -0.290882D+00     -0.323650D+00
   zz         0.897455D+02      0.132989D+02      0.147970D+02

 ----------------------------------------------------------------------
 Unable to Open any file for archive entry.
 1\1\GINC-AE40\Freq\RM062X\Aug-CC-pVTZ\C5H6N2O2\DHUANG\04-Mar-2025\0\\#
 N Geom=AllCheck Guess=TCheck SCRF=Check GenChk RM062X/Aug-CC-pVTZ Freq
 \\14\\0,1\C,-2.5566680617,-0.9062339528,2.8751444856\N,-1.2950243879,-
 1.4999130368,2.4555981303\C,-0.8107549276,-1.737228679,1.1969246293\N,
 0.3801610812,-2.2938715459,1.2308064582\C,0.6870671644,-2.4261242892,2
 .5422400372\C,-0.33710455,-1.9404932291,3.3156125198\C,-1.5004125462,-
 1.4256587734,-0.0687254227\O,-1.0601369523,-1.6404634147,-1.1582771808
 \O,-2.7150217622,-0.8564263392,0.1246481867\H,-2.5680507061,-0.8911220
 33,3.9609844504\H,-2.6454394031,0.107072614,2.4950185108\H,-3.39375655
 15,-1.4933578096,2.5094377621\H,1.6172047566,-2.8583136994,2.868658946
 7\H,-0.4677577051,-1.8701910411,4.3811194119\H,-3.0796207084,-0.693420
 1308,-0.7555950954\\Version=ES64L-G16RevC.01\State=1-A\HF=-454.102605\
 RMSD=2.198e-09\RMSF=9.324e-05\ZeroPoint=0.1156224\Thermal=0.123474\ETo
 t=-453.979131\HTot=-453.9781868\GTot=-454.0201033\Dipole=-1.3878381,0.
 6627195,1.6144476\DipoleDeriv=0.4716774,-0.1296654,-0.1181963,-0.12963
 35,0.2576203,0.0555751,-0.1117576,0.0525522,0.2271413,-0.6102407,0.232
 4025,0.3005028,0.2318389,-0.2284148,-0.1384296,0.2356016,-0.1079745,0.
 1390214,0.0884347,-0.0074419,-0.595087,-0.006642,0.089016,0.2746108,-0
 .5050443,0.2325359,-0.3444048,-0.4074091,0.063942,0.3479953,0.0621345,
 -0.3075326,-0.1613587,0.1349882,-0.0618093,-0.1205011,0.1490227,-0.121
 9843,0.1743801,-0.1239652,-0.0577522,-0.0827971,-0.0552345,0.0246257,-
 0.2570585,0.1139001,-0.1112532,-0.419121,-0.1069799,-0.0645875,0.19572
 53,0.0783808,-0.036971,-0.1534805,1.5338595,-0.5523063,0.2132181,-0.55
 31158,0.6056282,-0.0844077,0.1232793,-0.0423545,2.1587093,-0.5957911,0
 .1094781,0.0934275,0.1096345,-0.4148325,-0.0530836,0.1167388,-0.064013
 8,-1.4860059,-1.2087244,0.3975181,-0.0961368,0.3978437,-0.5417219,0.04
 34438,-0.0654635,0.0291122,-0.5295277,0.0419966,0.0221378,-0.0459712,0
 .0228597,0.0797281,0.0199984,0.0344088,-0.0175878,-0.0763222,-0.001228
 6,0.0028117,0.0532783,0.0533803,-0.0412835,0.0127866,0.0155416,0.05507
 77,0.0632238,-0.0525737,0.0106081,0.0250087,-0.0408036,0.0085469,-0.04
 79985,-0.0309023,-0.0465118,0.0647124,0.0244765,0.0601798,-0.0512046,0
 .0603492,0.1260742,0.023076,-0.0312934,0.0137697,0.0537228,0.0901776,0
 .0394237,0.0358662,0.039241,0.1552947,-0.0181078,0.0141494,-0.0079573,
 0.0185559,0.3624224,-0.0158507,0.08204,-0.0161419,0.3342168,-0.039033,
 0.0466071,-0.0224934,0.2422139\Polar=84.598671,-15.7926728,58.0700993,
 6.2996318,-2.518311,100.6390218\Quadrupole=1.0752637,-1.1052915,0.0300
 279,-1.2455082,4.5118706,-2.0931001\PG=C01 [X(C5H6N2O2)]\NImag=0\\0.52
 167499,0.03279521,0.57550977,0.04215242,-0.01952813,0.61263592,-0.1976
 8914,0.06424813,0.03388375,0.69773519,0.06416661,-0.09108807,-0.016317
 87,-0.25718888,0.26877548,0.02485703,-0.01209864,-0.11587297,-0.029844
 22,0.01825799,0.64695033,-0.00759054,0.00102436,0.02558834,-0.11326820
 ,0.02114465,0.06167089,0.63993274,0.00088478,-0.00639361,-0.01189022,0
 .02110323,-0.07931431,-0.03042847,-0.22750244,0.25812460,0.00967534,-0
 .00444643,0.00326160,0.05691813,-0.02821061,-0.25324185,0.07653230,-0.
 03091398,0.71865934,0.00578474,-0.00028303,0.00054824,-0.07062490,0.04
 339985,0.05654484,-0.33122506,0.11775248,0.02142088,0.51024448,-0.0002
 9203,0.00530794,-0.00037057,0.04292912,0.00082096,-0.02690486,0.117595
 73,-0.13490013,-0.01002974,-0.18759254,0.19661064,-0.00081084,0.000262
 02,-0.00826141,0.00229521,-0.00152832,-0.03212552,0.00268471,-0.001268
 46,-0.08149439,0.01171908,-0.00197860,0.51607183,0.00086048,0.00149910
 ,-0.00648329,-0.07225469,0.03992582,-0.03237294,-0.04028285,0.02354405
 ,-0.02429828,-0.11042771,0.01729040,-0.04664937,0.76434758,0.00152359,
 0.00350064,0.00299384,0.04050109,-0.00510118,0.01513295,0.02292754,-0.
 00012118,0.01082031,0.01736259,-0.08054695,0.01985208,-0.29036313,0.27
 801266,-0.00379237,0.00173929,-0.00002707,0.03466386,-0.01622426,0.012
 63065,-0.09559848,0.04416533,-0.05250808,-0.03848585,0.01603693,-0.301
 03894,0.05755278,-0.02304361,0.59246555,-0.02483193,0.00986491,-0.0102
 5097,-0.20351718,0.06448796,-0.08247986,-0.01817699,0.01532447,-0.0609
 8451,0.02910496,-0.00342937,0.06875854,-0.25960372,0.08867915,0.093463
 88,0.53834041,0.01000000,-0.00819305,0.00494542,0.06428889,-0.09384054
 ,0.03734462,0.01585022,0.00853529,0.02754568,-0.00409782,0.02213266,-0
 .03297924,0.08896015,-0.11369006,-0.04465830,-0.19294926,0.21762326,0.
 00567401,-0.00250266,0.01393465,-0.10579279,0.04824916,-0.20613572,0.0
 0025737,-0.00109712,-0.09778320,-0.00861332,0.00320459,-0.07511773,0.1
 2588960,-0.05982244,-0.18164278,-0.06954098,0.03911676,0.89152385,0.00
 598239,-0.00318549,-0.00180810,0.00649922,-0.00664515,0.00843332,-0.11
 006565,0.01845505,-0.06933566,-0.02685493,0.00838919,-0.03148593,-0.00
 805562,0.00745450,0.00915503,0.00898031,-0.00226673,0.01158089,0.56931
 565,-0.00314306,0.00068546,0.00083555,-0.00686040,-0.00470228,-0.00420
 435,0.01867116,-0.07778175,0.03148578,0.00844415,-0.01215362,0.0146714
 8,0.00735428,0.00424031,-0.00412993,-0.00216540,0.00488777,-0.00540726
 ,-0.16885954,0.28958673,0.00284814,-0.00134228,-0.00192533,-0.01588499
 ,0.00717073,-0.03819982,-0.04448251,0.01986948,-0.17676046,-0.02548884
 ,0.01186281,-0.01478104,-0.00238242,0.00126673,0.02536357,0.02307885,-
 0.01078817,0.00468399,-0.12229812,0.06372585,0.99649344,-0.00171998,0.
 00096889,0.00072968,-0.00029568,0.00225085,-0.00438882,0.01709240,0.00
 077370,-0.00153649,-0.00150841,0.00099460,-0.00397609,0.00130490,-0.00
 076815,0.00216470,0.00090297,-0.00087371,-0.00249008,-0.19021121,0.053
 58646,0.21753044,0.21338712,0.00094827,-0.00010874,-0.00033943,0.00224
 131,0.00356839,0.00204030,0.00084558,0.01838057,0.00000510,0.00110607,
 0.00018927,0.00192457,-0.00076422,-0.00002977,-0.00109155,-0.00090819,
 -0.00048487,0.00113194,0.05355118,-0.10532946,-0.10663989,-0.08629724,
 0.07520530,-0.00158891,0.00074500,0.00052829,-0.00588771,0.00274170,0.
 00313691,0.00739277,-0.00416500,-0.06586320,0.00927306,-0.00426783,0.0
 0853713,0.00263328,-0.00131247,-0.00969714,-0.00642487,0.00297185,-0.0
 0469313,0.21313860,-0.10459094,-0.67839698,-0.28135687,0.13755845,0.76
 294000,-0.00353066,0.00094202,0.00083123,0.00283320,-0.00109734,0.0032
 1265,-0.03306490,0.02036296,-0.00358588,0.00481897,-0.00118093,-0.0019
 0625,0.00132913,-0.00093534,-0.00608088,-0.00680064,0.00301913,-0.0039
 7993,-0.22641757,0.07588580,0.01889674,-0.04591118,0.03576913,0.059011
 49,0.40171773,0.00093533,-0.00197523,-0.00046203,-0.00110394,0.0009354
 7,-0.00149069,0.02013071,0.00117342,0.00165145,-0.00118343,0.00289165,
 0.00082687,-0.00089900,-0.00011540,0.00283950,0.00304452,-0.00168031,0
 .00186318,0.07561520,-0.09978083,-0.00936351,0.03586254,0.01258948,-0.
 02790578,-0.16909181,0.11659722,0.00015049,-0.00014741,-0.00990256,0.0
 0208404,-0.00096350,0.00170689,-0.03069412,0.01431960,0.00758758,-0.00
 245258,0.00108158,-0.00509514,-0.00185162,0.00086308,-0.00094430,-0.00
 077956,0.00036726,0.00005416,-0.01327257,0.00567171,-0.12758316,0.0700
 6951,-0.03307475,-0.01008435,0.10630145,-0.04509673,0.58361017,-0.0490
 4212,-0.00072171,-0.01038323,-0.00786195,0.00323530,0.03879163,-0.0022
 4484,0.00116092,-0.00372845,-0.00227897,0.00129984,0.00138381,0.000214
 53,-0.00019391,0.00074866,0.00131803,-0.00037171,0.00210979,-0.0017945
 6,0.00078768,-0.00034007,0.00055039,-0.00031321,0.00004882,0.00094942,
 -0.00009105,-0.00114337,0.05797711,-0.00061243,-0.05007827,0.00235691,
 0.00291028,-0.00320701,-0.01823020,0.00118903,-0.00024064,0.00176402,0
 .00129258,-0.00013245,-0.00065080,-0.00019790,-0.00012526,-0.00034897,
 -0.00041048,0.00066815,-0.00098202,0.00078457,-0.00046816,0.00016128,-
 0.00031175,0.00002472,-0.00002417,-0.00008017,0.00081798,0.00052115,-0
 .00581629,0.04831471,0.00186570,-0.00336871,-0.32727882,0.00235708,-0.
 00119405,-0.01210325,-0.00004399,0.00003890,0.00254406,0.00035890,-0.0
 0017218,-0.00003143,0.00027091,-0.00012467,-0.00003128,-0.00230486,0.0
 0108367,0.00107373,-0.00080618,0.00037916,0.00017010,0.00024560,-0.000
 11593,-0.00027514,0.00014912,-0.00008386,-0.00082582,-0.00153528,0.003
 48756,0.35288476,-0.04818814,0.00921983,-0.00322565,-0.01228817,0.0341
 2990,-0.01162955,0.00249330,-0.00021017,-0.00151030,-0.00206851,0.0001
 5120,-0.00117365,-0.00186084,0.00004770,0.00125334,0.00095357,0.001782
 50,0.00309024,-0.00020084,0.00057616,-0.00024728,-0.00006135,-0.000035
 45,0.00039445,0.00001442,-0.00016950,0.00025662,-0.00028195,-0.0003587
 3,-0.00082446,0.05868149,0.01500803,-0.28972181,0.09178030,0.00887533,
 -0.00958156,0.00205636,-0.00109491,0.00077853,0.00128594,0.00144854,-0
 .00043197,0.00077925,0.00077648,-0.00033349,-0.00134054,-0.00214072,-0
 .00026153,-0.00194090,0.00224193,-0.00134825,0.00032167,-0.00078302,0.
 00028812,0.00010733,-0.00086712,0.00104031,0.00118498,-0.00121166,0.00
 375899,-0.00059777,-0.02246647,0.31117660,-0.00666518,0.09732271,-0.08
 514766,0.00375522,-0.01307433,0.00484620,-0.00139737,-0.00014508,0.000
 39572,0.00162390,-0.00008928,0.00101614,0.00083428,-0.00066276,-0.0013
 4951,-0.00188257,0.00014240,-0.00102517,0.00227149,-0.00132027,0.00049
 887,-0.00050226,0.00030894,0.00002638,-0.00123469,0.00024979,-0.001451
 88,-0.00149223,0.02970943,-0.00867055,0.00390732,-0.10114239,0.0867354
 3,-0.20336138,-0.11523869,-0.06998328,-0.03183158,-0.00756233,-0.00866
 427,0.00210569,-0.00142327,-0.00194802,-0.00189406,0.00157039,-0.00135
 370,-0.00134751,0.00121360,0.00181692,0.00043049,-0.00253314,0.0034955
 5,-0.00224862,0.00050646,-0.00039503,0.00054458,-0.00027051,0.00017121
 ,0.00111624,0.00005836,-0.00076225,0.00270424,0.00129521,-0.00016811,0
 .00299956,0.00032702,0.00052601,0.23055974,-0.12111154,-0.13722494,-0.
 05476309,0.01801629,0.01017762,0.00740172,-0.00052630,0.00116815,0.000
 32782,0.00031862,-0.00062071,0.00042228,0.00047395,-0.00083240,-0.0001
 1427,0.00130314,0.00028175,-0.00115404,-0.00111046,0.00069943,-0.00001
 201,0.00046237,-0.00032211,-0.00036935,0.00073997,-0.00007598,-0.00098
 243,0.00192908,0.00035505,0.00086921,-0.02254646,-0.01568349,-0.011636
 55,0.12182634,0.14218355,-0.07635060,-0.05571648,-0.08245270,0.0124279
 7,0.00547496,0.00462861,-0.00078859,0.00116421,0.00039225,0.00112482,-
 0.00117727,0.00102863,0.00103712,-0.00023029,-0.00136449,-0.00134585,0
 .00135290,-0.00104177,0.00250609,-0.00090294,0.00049876,-0.00057044,0.
 00019437,0.00003184,-0.00101116,0.00076364,-0.00140997,-0.02386255,-0.
 01804684,-0.00825357,0.00960889,0.00734885,0.00420930,0.07732665,0.060
 18901,0.08380602,0.00036813,0.00065476,-0.00057080,-0.00071785,0.00281
 940,0.00273220,0.00281585,0.00201706,-0.00038716,-0.00140276,-0.001967
 12,-0.00371303,-0.28307809,0.11663445,-0.07319752,-0.00803102,0.003873
 97,-0.00917732,0.00033412,0.00051756,0.00005721,-0.00007894,-0.0000101
 9,-0.00010932,-0.00008601,-0.00011864,-0.00007665,-0.00002132,-0.00004
 892,-0.00001501,-0.00029883,0.00009111,0.00008158,0.00001956,0.0000148
 8,-0.00006143,0.29084830,0.00066145,0.00147130,0.00026022,0.00282974,0
 .00392535,-0.00134284,0.00200676,0.00619802,0.00006310,-0.00217971,-0.
 00450640,0.00171744,0.11666020,-0.08660421,0.03382681,0.00407099,-0.00
 144438,0.00438778,0.00051131,0.00120049,-0.00002777,-0.00000921,-0.000
 09413,0.00004986,-0.00012309,-0.00028038,0.00003382,-0.00004942,-0.000
 10243,0.00000842,-0.00024868,0.00010850,0.00014721,0.00035792,-0.00021
 261,-0.00015704,-0.12376378,0.08221084,0.00025159,-0.00012423,0.001023
 10,0.00392492,-0.00190065,-0.00230369,-0.00149704,0.00058276,-0.006517
 89,-0.02846312,0.01329211,-0.00776451,-0.07022627,0.03243758,-0.079454
 88,0.01371212,-0.00631703,0.01152823,-0.00069094,0.00032165,0.00125638
 ,-0.00000306,0.00000037,-0.00022096,-0.00060229,0.00027929,-0.00059840
 ,-0.00007011,0.00003425,0.00004403,0.00020606,-0.00008538,-0.00005488,
 0.00019192,-0.00010120,-0.00005204,0.08399264,-0.03877573,0.08339816,0
 .00127758,-0.00178780,-0.00141273,0.00337192,-0.00282749,-0.02681193,-
 0.00525687,0.00428941,-0.00140696,-0.00093121,0.00345542,0.00591297,0.
 00955380,-0.00419855,0.01573973,-0.05946603,0.01544052,0.04725748,0.00
 139860,0.00059944,-0.00003612,-0.00020403,-0.00036312,-0.00066977,-0.0
 0011112,-0.00005439,-0.00001686,-0.00041438,0.00041099,0.00022481,0.00
 010181,-0.00001015,0.00025159,-0.00008530,0.00008394,-0.00004067,-0.00
 065039,-0.00065642,-0.00061626,0.05136860,-0.00176301,-0.00168728,0.00
 068335,-0.00255438,-0.00087712,0.01243682,0.00429073,0.00194043,0.0006
 2406,0.00341097,0.00472934,-0.00282815,-0.00436801,0.00226462,-0.00738
 773,0.01534929,-0.03471907,-0.02493483,0.00060499,0.00239813,-0.000008
 68,-0.00036011,-0.00079748,0.00031895,-0.00005580,-0.00020111,0.000010
 55,0.00040492,0.00026895,-0.00010296,0.00023940,-0.00002240,0.00026385
 ,-0.00016955,0.00015913,-0.00036032,-0.00064743,-0.00173722,0.00030316
 ,-0.01438781,0.02822429,0.00143763,-0.00065112,-0.00001141,0.00474611,
 -0.00232159,-0.01397225,-0.00137135,0.00060653,-0.00005995,0.00085500,
 -0.00046228,-0.00087858,-0.00381863,0.00175758,-0.00298874,0.03660453,
 -0.01995168,-0.35546126,0.00064772,-0.00032821,-0.00026883,-0.00030212
 ,0.00014755,-0.00025039,-0.00018886,0.00009094,0.00007836,-0.00044378,
 0.00021037,0.00076016,-0.00010416,0.00004169,0.00022762,-0.00009433,0.
 00005386,0.00023261,0.00042880,-0.00018552,-0.00030441,-0.03839175,0.0
 2099015,0.37289714,0.00000559,-0.00000049,0.00038439,-0.00009018,-0.00
 023916,-0.00005098,-0.00326407,0.00346777,0.00417506,-0.00073661,0.000
 78609,-0.00168545,-0.00069940,0.00011487,0.00059620,0.00039677,-0.0001
 2302,0.00023950,-0.02666131,0.01409925,-0.05085599,0.00620841,-0.00549
 942,0.00397377,-0.09685703,0.03706510,-0.12781254,0.00022638,-0.000046
 00,0.00022576,0.00000450,-0.00019438,-0.00007708,0.00028835,0.00012618
 ,-0.00000026,-0.00002076,-0.00006807,-0.00011017,0.00004702,0.00000580
 ,-0.00000482,0.12115235,-0.00000120,-0.00000412,-0.00018426,-0.0002358
 1,-0.00049120,0.00002930,0.00344717,0.00245260,-0.00197250,0.00080069,
 0.00060976,0.00077758,0.00010780,-0.00051833,-0.00026869,-0.00012101,0
 .00018495,-0.00011215,0.01445945,-0.00213397,0.02380375,-0.00549621,-0
 .00307928,-0.00185759,0.03671259,-0.03193628,0.05621108,-0.00004879,0.
 00014566,-0.00010681,-0.00011125,0.00023344,-0.00007369,0.00004216,-0.
 00005245,0.00010325,-0.00006711,-0.00013276,0.00005304,0.00000602,0.00
 005678,0.00000174,-0.04949451,0.03466519,0.00029555,-0.00014293,-0.000
 50363,0.00035341,-0.00015936,0.00005548,0.00174708,-0.00083848,0.00138
 846,0.00003499,-0.00002539,-0.00006503,-0.00013514,0.00007208,0.000587
 44,0.00037612,-0.00017614,0.00010213,-0.00803564,0.00379272,0.00895050
 ,0.00438628,-0.00205004,-0.00571926,-0.16981275,0.07583794,-0.43514159
 ,-0.00008365,0.00003803,-0.00000697,-0.00000188,0.00020062,-0.00025602
 ,-0.00015925,-0.00013096,-0.00025348,0.00001580,-0.00000577,0.00002177
 ,0.00001648,-0.00000823,-0.00000008,0.17100261,-0.07640408,0.43084029\
 \0.00003681,-0.00001775,-0.00006380,-0.00011702,0.00005810,0.00019847,
 0.00016979,-0.00007376,-0.00012542,-0.00010344,0.00005243,0.00018601,-
 0.00012269,0.00005532,-0.00007561,0.00015680,-0.00007526,-0.00010379,0
 .00017776,-0.00011227,-0.00024852,-0.00008058,0.00005036,0.00017787,-0
 .00011083,0.00005860,-0.00002534,-0.00000170,0.00000134,0.00000286,0.0
 0000321,0.00000464,0.00000999,-0.00000076,-0.00000536,0.00001030,0.000
 00664,-0.00000331,0.00002082,-0.00000755,0.00000341,-0.00000992,-0.000
 00643,0.00000351,0.00004608\\\@
 The archive entry for this job was punched.


 TO ERR IS HUMAN - AND TO BLAME IT ON A COMPUTER IS EVEN MORE SO.
 Job cpu time:       0 days 10 hours  2 minutes 41.4 seconds.
 Elapsed time:       0 days  0 hours 30 minutes  9.4 seconds.
 File lengths (MBytes):  RWF=    335 Int=      0 D2E=      0 Chk=     25 Scr=      1
 Normal termination of Gaussian 16 at Tue Mar  4 18:10:27 2025.
