 Entering Gaussian System, Link 0=g16
 Initial command:
 /usr/local/gaussian16c01/g16/l1.exe "/scr/dhuang/Gau-16764.inp" -scrdir="/scr/dhuang/"
 Entering Link 1 = /usr/local/gaussian16c01/g16/l1.exe PID=     16765.
  
 Copyright (c) 1988-2019, Gaussian, Inc.  All Rights Reserved.
  
 This is part of the Gaussian(R) 16 program.  It is based on
 the Gaussian(R) 09 system (copyright 2009, Gaussian, Inc.),
 the Gaussian(R) 03 system (copyright 2003, Gaussian, Inc.),
 the Gaussian(R) 98 system (copyright 1998, Gaussian, Inc.),
 the Gaussian(R) 94 system (copyright 1995, Gaussian, Inc.),
 the Gaussian 92(TM) system (copyright 1992, Gaussian, Inc.),
 the Gaussian 90(TM) system (copyright 1990, Gaussian, Inc.),
 the Gaussian 88(TM) system (copyright 1988, Gaussian, Inc.),
 the Gaussian 86(TM) system (copyright 1986, Carnegie Mellon
 University), and the Gaussian 82(TM) system (copyright 1983,
 Carnegie Mellon University). Gaussian is a federally registered
 trademark of Gaussian, Inc.
  
 This software contains proprietary and confidential information,
 including trade secrets, belonging to Gaussian, Inc.
  
 This software is provided under written license and may be
 used, copied, transmitted, or stored only in accord with that
 written license.
  
 The following legend is applicable only to US Government
 contracts under FAR:
  
                    RESTRICTED RIGHTS LEGEND
  
 Use, reproduction and disclosure by the US Government is
 subject to restrictions as set forth in subparagraphs (a)
 and (c) of the Commercial Computer Software - Restricted
 Rights clause in FAR 52.227-19.
  
 Gaussian, Inc.
 340 Quinnipiac St., Bldg. 40, Wallingford CT 06492
  
  
 ---------------------------------------------------------------
 Warning -- This program may not be used in any manner that
 competes with the business of Gaussian, Inc. or will provide
 assistance to any competitor of Gaussian, Inc.  The licensee
 of this program is prohibited from giving any competitor of
 Gaussian, Inc. access to this program.  By using this program,
 the user acknowledges that Gaussian, Inc. is engaged in the
 business of creating and licensing software in the field of
 computational chemistry and represents and warrants to the
 licensee that it is not a competitor of Gaussian, Inc. and that
 it will not use this program in any manner prohibited above.
 ---------------------------------------------------------------
  

 Cite this work as:
 Gaussian 16, Revision C.01,
 M. J. Frisch, G. W. Trucks, H. B. Schlegel, G. E. Scuseria, 
 M. A. Robb, J. R. Cheeseman, G. Scalmani, V. Barone, 
 G. A. Petersson, H. Nakatsuji, X. Li, M. Caricato, A. V. Marenich, 
 J. Bloino, B. G. Janesko, R. Gomperts, B. Mennucci, H. P. Hratchian, 
 J. V. Ortiz, A. F. Izmaylov, J. L. Sonnenberg, D. Williams-Young, 
 F. Ding, F. Lipparini, F. Egidi, J. Goings, B. Peng, A. Petrone, 
 T. Henderson, D. Ranasinghe, V. G. Zakrzewski, J. Gao, N. Rega, 
 G. Zheng, W. Liang, M. Hada, M. Ehara, K. Toyota, R. Fukuda, 
 J. Hasegawa, M. Ishida, T. Nakajima, Y. Honda, O. Kitao, H. Nakai, 
 T. Vreven, K. Throssell, J. A. Montgomery, Jr., J. E. Peralta, 
 F. Ogliaro, M. J. Bearpark, J. J. Heyd, E. N. Brothers, K. N. Kudin, 
 V. N. Staroverov, T. A. Keith, R. Kobayashi, J. Normand, 
 K. Raghavachari, A. P. Rendell, J. C. Burant, S. S. Iyengar, 
 J. Tomasi, M. Cossi, J. M. Millam, M. Klene, C. Adamo, R. Cammi, 
 J. W. Ochterski, R. L. Martin, K. Morokuma, O. Farkas, 
 J. B. Foresman, and D. J. Fox, Gaussian, Inc., Wallingford CT, 2019.
 
 ******************************************
 Gaussian 16:  ES64L-G16RevC.01  3-Jul-2019
                 4-Mar-2025 
 ******************************************
 %nprocshared=20
 Will use up to   20 processors via shared memory.
 %mem=10000MW
 %chk=15.chk
 ------------------------------------
 # opt freq m062x/aug-cc-pvtz pop=nbo
 ------------------------------------
 1/18=20,19=15,26=3,38=1/1,3;
 2/9=110,12=2,17=6,18=5,40=1/2;
 3/5=16,6=1,7=10,11=2,25=1,30=1,71=1,74=-55/1,2,3;
 4//1;
 5/5=2,38=5/2;
 6/7=2,8=2,9=2,10=2,28=1,40=1/1,7;
 7//1,2,3,16;
 1/18=20,19=15,26=3/3(2);
 2/9=110/2;
 99//99;
 2/9=110/2;
 3/5=16,6=1,7=10,11=2,25=1,30=1,71=1,74=-55/1,2,3;
 4/5=5,16=3,69=1/1;
 5/5=2,38=5/2;
 7//1,2,3,16;
 1/18=20,19=15,26=3/3(-5);
 2/9=110/2;
 6/7=2,8=2,9=2,10=2,19=2,28=1,40=1/1,7;
 99/9=1/99;
 --
 15
 --
 Symbolic Z-matrix:
 Charge =  0 Multiplicity = 1
 C                    -2.06099   0.39618  -4.58293 
 N                    -2.04416   0.46261  -3.11832 
 C                    -2.02667   1.54484  -2.46669 
 N                    -2.01481   1.28306  -1.22893 
 C                    -2.04407  -0.53853  -2.34638 
 C                    -2.02502   0.01592  -1.12001 
 C                    -2.0185   -0.7124    0.031 
 O                    -2.00131  -0.15526   1.11355 
 O                    -2.0312   -2.0699   -0.0104 
 H                    -2.04332  -0.65424  -4.95165 
 H                    -2.9817    0.88161  -4.97988 
 H                    -1.17185   0.91877  -5.00411 
 H                    -2.02292   2.53876  -2.92718 
 H                    -2.05725  -1.57945  -2.6836 
 H                    -2.02431  -2.43738   0.88693 
 

 GradGradGradGradGradGradGradGradGradGradGradGradGradGradGradGradGradGrad
 Berny optimization.
 Initialization pass.
                           ----------------------------
                           !    Initial Parameters    !
                           ! (Angstroms and Degrees)  !
 --------------------------                            --------------------------
 ! Name  Definition              Value          Derivative Info.                !
 --------------------------------------------------------------------------------
 ! R1    R(1,2)                  1.4662         estimate D2E/DX2                !
 ! R2    R(1,10)                 1.1134         estimate D2E/DX2                !
 ! R3    R(1,11)                 1.114          estimate D2E/DX2                !
 ! R4    R(1,12)                 1.114          estimate D2E/DX2                !
 ! R5    R(2,3)                  1.2634         estimate D2E/DX2                !
 ! R6    R(2,5)                  1.2642         estimate D2E/DX2                !
 ! R7    R(3,4)                  1.2652         estimate D2E/DX2                !
 ! R8    R(3,13)                 1.0954         estimate D2E/DX2                !
 ! R9    R(4,6)                  1.2719         estimate D2E/DX2                !
 ! R10   R(5,6)                  1.346          estimate D2E/DX2                !
 ! R11   R(5,14)                 1.0943         estimate D2E/DX2                !
 ! R12   R(6,7)                  1.3621         estimate D2E/DX2                !
 ! R13   R(7,8)                  1.2176         estimate D2E/DX2                !
 ! R14   R(7,9)                  1.3582         estimate D2E/DX2                !
 ! R15   R(9,15)                 0.9697         estimate D2E/DX2                !
 ! A1    A(2,1,10)             111.9231         estimate D2E/DX2                !
 ! A2    A(2,1,11)             110.2241         estimate D2E/DX2                !
 ! A3    A(2,1,12)             110.3184         estimate D2E/DX2                !
 ! A4    A(10,1,11)            107.8321         estimate D2E/DX2                !
 ! A5    A(10,1,12)            107.7403         estimate D2E/DX2                !
 ! A6    A(11,1,12)            108.6951         estimate D2E/DX2                !
 ! A7    A(1,2,3)              123.6542         estimate D2E/DX2                !
 ! A8    A(1,2,5)              125.0351         estimate D2E/DX2                !
 ! A9    A(3,2,5)              111.3107         estimate D2E/DX2                !
 ! A10   A(2,3,4)              109.1158         estimate D2E/DX2                !
 ! A11   A(2,3,13)             124.0884         estimate D2E/DX2                !
 ! A12   A(4,3,13)             126.7958         estimate D2E/DX2                !
 ! A13   A(3,4,6)              106.849          estimate D2E/DX2                !
 ! A14   A(2,5,6)              103.3049         estimate D2E/DX2                !
 ! A15   A(2,5,14)             124.4117         estimate D2E/DX2                !
 ! A16   A(6,5,14)             132.2833         estimate D2E/DX2                !
 ! A17   A(4,6,5)              109.4196         estimate D2E/DX2                !
 ! A18   A(4,6,7)              127.2323         estimate D2E/DX2                !
 ! A19   A(5,6,7)              123.3481         estimate D2E/DX2                !
 ! A20   A(6,7,8)              120.4439         estimate D2E/DX2                !
 ! A21   A(6,7,9)              120.5724         estimate D2E/DX2                !
 ! A22   A(8,7,9)              118.9836         estimate D2E/DX2                !
 ! A23   A(7,9,15)             110.5183         estimate D2E/DX2                !
 ! D1    D(10,1,2,3)           178.2401         estimate D2E/DX2                !
 ! D2    D(10,1,2,5)            -1.7012         estimate D2E/DX2                !
 ! D3    D(11,1,2,3)           -61.7561         estimate D2E/DX2                !
 ! D4    D(11,1,2,5)           118.3026         estimate D2E/DX2                !
 ! D5    D(12,1,2,3)            58.2882         estimate D2E/DX2                !
 ! D6    D(12,1,2,5)          -121.6531         estimate D2E/DX2                !
 ! D7    D(1,2,3,4)           -179.9685         estimate D2E/DX2                !
 ! D8    D(1,2,3,13)             0.0381         estimate D2E/DX2                !
 ! D9    D(5,2,3,4)             -0.0201         estimate D2E/DX2                !
 ! D10   D(5,2,3,13)           179.9865         estimate D2E/DX2                !
 ! D11   D(1,2,5,6)            179.968          estimate D2E/DX2                !
 ! D12   D(1,2,5,14)            -0.039          estimate D2E/DX2                !
 ! D13   D(3,2,5,6)              0.0204         estimate D2E/DX2                !
 ! D14   D(3,2,5,14)          -179.9865         estimate D2E/DX2                !
 ! D15   D(2,3,4,6)              0.0101         estimate D2E/DX2                !
 ! D16   D(13,3,4,6)          -179.9967         estimate D2E/DX2                !
 ! D17   D(3,4,6,5)              0.0027         estimate D2E/DX2                !
 ! D18   D(3,4,6,7)           -179.9935         estimate D2E/DX2                !
 ! D19   D(2,5,6,4)             -0.014          estimate D2E/DX2                !
 ! D20   D(2,5,6,7)            179.9824         estimate D2E/DX2                !
 ! D21   D(14,5,6,4)           179.9937         estimate D2E/DX2                !
 ! D22   D(14,5,6,7)            -0.0099         estimate D2E/DX2                !
 ! D23   D(4,6,7,8)              0.0091         estimate D2E/DX2                !
 ! D24   D(4,6,7,9)           -179.9982         estimate D2E/DX2                !
 ! D25   D(5,6,7,8)           -179.9866         estimate D2E/DX2                !
 ! D26   D(5,6,7,9)              0.006          estimate D2E/DX2                !
 ! D27   D(6,7,9,15)           180.0            estimate D2E/DX2                !
 ! D28   D(8,7,9,15)            -0.0072         estimate D2E/DX2                !
 --------------------------------------------------------------------------------
 Trust Radius=3.00D-01 FncErr=1.00D-07 GrdErr=1.00D-06 EigMax=2.50D+02 EigMin=1.00D-04
 Number of steps in this run=     76 maximum allowed number of steps=    100.
 GradGradGradGradGradGradGradGradGradGradGradGradGradGradGradGradGradGrad

                          Input orientation:                          
 ---------------------------------------------------------------------
 Center     Atomic      Atomic             Coordinates (Angstroms)
 Number     Number       Type             X           Y           Z
 ---------------------------------------------------------------------
      1          6           0       -2.060986    0.396182   -4.582934
      2          7           0       -2.044157    0.462608   -3.118318
      3          6           0       -2.026670    1.544840   -2.466694
      4          7           0       -2.014811    1.283056   -1.228931
      5          6           0       -2.044071   -0.538535   -2.346375
      6          6           0       -2.025020    0.015917   -1.120012
      7          6           0       -2.018500   -0.712400    0.031000
      8          8           0       -2.001312   -0.155261    1.113555
      9          8           0       -2.031200   -2.069900   -0.010400
     10          1           0       -2.043318   -0.654235   -4.951650
     11          1           0       -2.981700    0.881612   -4.979884
     12          1           0       -1.171847    0.918774   -5.004107
     13          1           0       -2.022923    2.538758   -2.927176
     14          1           0       -2.057253   -1.579448   -2.683602
     15          1           0       -2.024313   -2.437384    0.886929
 ---------------------------------------------------------------------
                    Distance matrix (angstroms):
                    1          2          3          4          5
     1  C    0.000000
     2  N    1.466218   0.000000
     3  C    2.408125   1.263387   0.000000
     4  N    3.469584   2.060044   1.265199   0.000000
     5  C    2.424083   1.264192   2.086918   2.137225   0.000000
     6  C    3.483924   2.047712   2.037439   1.271852   1.346011
     7  C    4.745435   3.361474   3.366552   2.359933   2.383862
     8  O    5.723429   4.276956   3.963479   2.748851   3.481357
     9  O    5.195240   4.009105   4.370325   3.567548   2.793211
    10  H    1.113391   2.146728   3.318315   4.196730   2.607842
    11  H    1.113969   2.126024   2.769129   3.894314   3.135496
    12  H    1.114026   2.127254   2.749753   3.885259   3.154054
    13  H    2.708065   2.085039   1.095414   2.112081   3.131694
    14  H    2.740545   2.087855   3.131957   3.211199   1.094256
    15  H    6.160344   4.944932   5.206236   4.280027   3.749703
                    6          7          8          9         10
     6  C    0.000000
     7  C    1.362100   0.000000
     8  O    2.240242   1.217631   0.000000
     9  O    2.362607   1.358191   2.220363   0.000000
    10  H    3.889844   4.983051   6.085840   5.140058   0.000000
    11  H    4.069800   5.345801   6.258296   5.857529   1.800052
    12  H    4.077897   5.360023   6.266366   5.882836   1.799047
    13  H    3.103316   4.395549   4.856512   5.454116   3.780756
    14  H    2.234064   2.849972   4.055841   2.717947   2.449541
    15  H    3.169621   1.925673   2.293463   0.969686   6.104832
                   11         12         13         14         15
    11  H    0.000000
    12  H    1.810397   0.000000
    13  H    2.806955   2.768090   0.000000
    14  H    3.490605   3.522754   4.125545   0.000000
    15  H    6.808217   6.833359   6.269719   3.672306   0.000000
 Stoichiometry    C5H6N2O2
 Framework group  C1[X(C5H6N2O2)]
 Deg. of freedom    39
 Full point group                 C1      NOp   1
 Largest Abelian subgroup         C1      NOp   1
 Largest concise Abelian subgroup C1      NOp   1
                         Standard orientation:                         
 ---------------------------------------------------------------------
 Center     Atomic      Atomic             Coordinates (Angstroms)
 Number     Number       Type             X           Y           Z
 ---------------------------------------------------------------------
      1          6           0        2.949663    0.710857   -0.000079
      2          7           0        1.611603    0.111365    0.000341
      3          6           0        1.402642   -1.134621   -0.000017
      4          7           0        0.155144   -1.345519   -0.000155
      5          6           0        0.526063    0.759273    0.000038
      6          6           0       -0.411250   -0.206745   -0.000090
      7          6           0       -1.749278    0.048204   -0.000066
      8          8           0       -2.551827   -0.867515    0.000059
      9          8           0       -2.209004    1.326223   -0.000031
     10          1           0        2.906897    1.822987   -0.031371
     11          1           0        3.503786    0.416549    0.920387
     12          1           0        3.526787    0.368200   -0.889218
     13          1           0        2.195794   -1.890161   -0.000071
     14          1           0        0.457722    1.851393    0.000036
     15          1           0       -3.178611    1.338639   -0.000017
 ---------------------------------------------------------------------
 Rotational constants (GHZ):           4.6485071           1.1521461           0.9289087
 Standard basis: Aug-CC-pVTZ (5D, 7F)
 There are   645 symmetry adapted cartesian basis functions of A   symmetry.
 There are   552 symmetry adapted basis functions of A   symmetry.
   552 basis functions,   810 primitive gaussians,   645 cartesian basis functions
    33 alpha electrons       33 beta electrons
       nuclear repulsion energy       447.0855490771 Hartrees.
 NAtoms=   15 NActive=   15 NUniq=   15 SFac= 1.00D+00 NAtFMM=   60 NAOKFM=F Big=F
 Integral buffers will be    131072 words long.
 Raffenetti 2 integral format.
 Two-electron integral symmetry is turned on.
 One-electron integrals computed using PRISM.
 NBasis=   552 RedAO= T EigKep=  1.76D-06  NBF=   552
 NBsUse=   552 1.00D-06 EigRej= -1.00D+00 NBFU=   552
 ExpMin= 2.53D-02 ExpMax= 1.53D+04 ExpMxC= 5.22D+02 IAcc=3 IRadAn=         5 AccDes= 0.00D+00
 Harris functional with IExCor= 1009 and IRadAn=       5 diagonalized for initial guess.
 HarFok:  IExCor= 1009 AccDes= 0.00D+00 IRadAn=         5 IDoV= 1 UseB2=F ITyADJ=14
 ICtDFT=  3500011 ScaDFX=  1.000000  1.000000  1.000000  1.000000
 FoFCou: FMM=F IPFlag=           0 FMFlag=      100000 FMFlg1=           0
         NFxFlg=           0 DoJE=T BraDBF=F KetDBF=T FulRan=T
         wScrn=  0.000000 ICntrl=       500 IOpCl=  0 I1Cent=   200000004 NGrid=           0
         NMat0=    1 NMatS0=      1 NMatT0=    0 NMatD0=    1 NMtDS0=    0 NMtDT0=    0
 Petite list used in FoFCou.
 Requested convergence on RMS density matrix=1.00D-08 within 128 cycles.
 Requested convergence on MAX density matrix=1.00D-06.
 Requested convergence on             energy=1.00D-06.
 No special actions if energy rises.
 SCF Done:  E(RM062X) =  -454.055757898     A.U. after   14 cycles
            NFock= 14  Conv=0.53D-08     -V/T= 2.0025

 **********************************************************************

            Population analysis using the SCF Density.

 **********************************************************************

 Orbital symmetries:
       Occupied  (A) (A) (A) (A) (A) (A) (A) (A) (A) (A) (A) (A)
                 (A) (A) (A) (A) (A) (A) (A) (A) (A) (A) (A) (A)
                 (A) (A) (A) (A) (A) (A) (A) (A) (A)
       Virtual   (A) (A) (A) (A) (A) (A) (A) (A) (A) (A) (A) (A)
                 (A) (A) (A) (A) (A) (A) (A) (A) (A) (A) (A) (A)
                 (A) (A) (A) (A) (A) (A) (A) (A) (A) (A) (A) (A)
                 (A) (A) (A) (A) (A) (A) (A) (A) (A) (A) (A) (A)
                 (A) (A) (A) (A) (A) (A) (A) (A) (A) (A) (A) (A)
                 (A) (A) (A) (A) (A) (A) (A) (A) (A) (A) (A) (A)
                 (A) (A) (A) (A) (A) (A) (A) (A) (A) (A) (A) (A)
                 (A) (A) (A) (A) (A) (A) (A) (A) (A) (A) (A) (A)
                 (A) (A) (A) (A) (A) (A) (A) (A) (A) (A) (A) (A)
                 (A) (A) (A) (A) (A) (A) (A) (A) (A) (A) (A) (A)
                 (A) (A) (A) (A) (A) (A) (A) (A) (A) (A) (A) (A)
                 (A) (A) (A) (A) (A) (A) (A) (A) (A) (A) (A) (A)
                 (A) (A) (A) (A) (A) (A) (A) (A) (A) (A) (A) (A)
                 (A) (A) (A) (A) (A) (A) (A) (A) (A) (A) (A) (A)
                 (A) (A) (A) (A) (A) (A) (A) (A) (A) (A) (A) (A)
                 (A) (A) (A) (A) (A) (A) (A) (A) (A) (A) (A) (A)
                 (A) (A) (A) (A) (A) (A) (A) (A) (A) (A) (A) (A)
                 (A) (A) (A) (A) (A) (A) (A) (A) (A) (A) (A) (A)
                 (A) (A) (A) (A) (A) (A) (A) (A) (A) (A) (A) (A)
                 (A) (A) (A) (A) (A) (A) (A) (A) (A) (A) (A) (A)
                 (A) (A) (A) (A) (A) (A) (A) (A) (A) (A) (A) (A)
                 (A) (A) (A) (A) (A) (A) (A) (A) (A) (A) (A) (A)
                 (A) (A) (A) (A) (A) (A) (A) (A) (A) (A) (A) (A)
                 (A) (A) (A) (A) (A) (A) (A) (A) (A) (A) (A) (A)
                 (A) (A) (A) (A) (A) (A) (A) (A) (A) (A) (A) (A)
                 (A) (A) (A) (A) (A) (A) (A) (A) (A) (A) (A) (A)
                 (A) (A) (A) (A) (A) (A) (A) (A) (A) (A) (A) (A)
                 (A) (A) (A) (A) (A) (A) (A) (A) (A) (A) (A) (A)
                 (A) (A) (A) (A) (A) (A) (A) (A) (A) (A) (A) (A)
                 (A) (A) (A) (A) (A) (A) (A) (A) (A) (A) (A) (A)
                 (A) (A) (A) (A) (A) (A) (A) (A) (A) (A) (A) (A)
                 (A) (A) (A) (A) (A) (A) (A) (A) (A) (A) (A) (A)
                 (A) (A) (A) (A) (A) (A) (A) (A) (A) (A) (A) (A)
                 (A) (A) (A) (A) (A) (A) (A) (A) (A) (A) (A) (A)
                 (A) (A) (A) (A) (A) (A) (A) (A) (A) (A) (A) (A)
                 (A) (A) (A) (A) (A) (A) (A) (A) (A) (A) (A) (A)
                 (A) (A) (A) (A) (A) (A) (A) (A) (A) (A) (A) (A)
                 (A) (A) (A) (A) (A) (A) (A) (A) (A) (A) (A) (A)
                 (A) (A) (A) (A) (A) (A) (A) (A) (A) (A) (A) (A)
                 (A) (A) (A) (A) (A) (A) (A) (A) (A) (A) (A) (A)
                 (A) (A) (A) (A) (A) (A) (A) (A) (A) (A) (A) (A)
                 (A) (A) (A) (A) (A) (A) (A) (A) (A) (A) (A) (A)
                 (A) (A) (A) (A) (A) (A) (A) (A) (A) (A) (A) (A)
                 (A) (A) (A)
 The electronic state is 1-A.
 Alpha  occ. eigenvalues --  -19.66056 -19.58980 -14.83012 -14.72740 -10.65578
 Alpha  occ. eigenvalues --  -10.61800 -10.59070 -10.57368 -10.54903  -1.22886
 Alpha  occ. eigenvalues --   -1.21644  -1.11721  -1.03984  -0.90270  -0.85319
 Alpha  occ. eigenvalues --   -0.78786  -0.69821  -0.67102  -0.64693  -0.60413
 Alpha  occ. eigenvalues --   -0.57390  -0.55178  -0.53219  -0.52296  -0.51491
 Alpha  occ. eigenvalues --   -0.50414  -0.49544  -0.46179  -0.39189  -0.36203
 Alpha  occ. eigenvalues --   -0.34912  -0.33854  -0.30597
 Alpha virt. eigenvalues --   -0.01878  -0.00053   0.00138   0.00551   0.01319
 Alpha virt. eigenvalues --    0.01766   0.02976   0.03820   0.04226   0.05200
 Alpha virt. eigenvalues --    0.05254   0.06238   0.06253   0.07325   0.07563
 Alpha virt. eigenvalues --    0.07677   0.07943   0.08727   0.09644   0.09734
 Alpha virt. eigenvalues --    0.10292   0.10535   0.10900   0.11734   0.11972
 Alpha virt. eigenvalues --    0.13323   0.13750   0.14530   0.15099   0.15382
 Alpha virt. eigenvalues --    0.16282   0.16777   0.17335   0.18162   0.18242
 Alpha virt. eigenvalues --    0.18542   0.18728   0.19205   0.20314   0.20545
 Alpha virt. eigenvalues --    0.21698   0.22211   0.23140   0.23225   0.23328
 Alpha virt. eigenvalues --    0.24064   0.24925   0.25089   0.25404   0.26382
 Alpha virt. eigenvalues --    0.26826   0.27019   0.27760   0.27837   0.27910
 Alpha virt. eigenvalues --    0.29397   0.29481   0.30713   0.31018   0.32178
 Alpha virt. eigenvalues --    0.32675   0.32860   0.33359   0.33795   0.34987
 Alpha virt. eigenvalues --    0.35643   0.35725   0.36126   0.36780   0.37046
 Alpha virt. eigenvalues --    0.37524   0.37936   0.38250   0.38693   0.39006
 Alpha virt. eigenvalues --    0.39431   0.40582   0.40981   0.41448   0.42077
 Alpha virt. eigenvalues --    0.42174   0.43009   0.43373   0.43902   0.45125
 Alpha virt. eigenvalues --    0.46375   0.46518   0.47209   0.48542   0.49176
 Alpha virt. eigenvalues --    0.49876   0.53026   0.53217   0.53667   0.54255
 Alpha virt. eigenvalues --    0.54814   0.55469   0.55728   0.55948   0.58622
 Alpha virt. eigenvalues --    0.59494   0.59588   0.60304   0.60689   0.60890
 Alpha virt. eigenvalues --    0.62178   0.63315   0.64365   0.65214   0.65977
 Alpha virt. eigenvalues --    0.66414   0.67649   0.68682   0.69467   0.69989
 Alpha virt. eigenvalues --    0.71056   0.71526   0.71840   0.72992   0.73113
 Alpha virt. eigenvalues --    0.73841   0.74274   0.74341   0.74604   0.75771
 Alpha virt. eigenvalues --    0.76915   0.77144   0.78041   0.78810   0.78904
 Alpha virt. eigenvalues --    0.80259   0.80731   0.81136   0.81360   0.82546
 Alpha virt. eigenvalues --    0.83763   0.83806   0.84358   0.85281   0.85673
 Alpha virt. eigenvalues --    0.86222   0.87433   0.87917   0.88519   0.89411
 Alpha virt. eigenvalues --    0.90208   0.90844   0.91097   0.91382   0.91755
 Alpha virt. eigenvalues --    0.92860   0.92967   0.93204   0.95417   0.96556
 Alpha virt. eigenvalues --    0.97611   0.98105   0.99122   1.00385   1.01279
 Alpha virt. eigenvalues --    1.01754   1.02302   1.02644   1.03452   1.04552
 Alpha virt. eigenvalues --    1.05148   1.06239   1.07852   1.08038   1.08148
 Alpha virt. eigenvalues --    1.10412   1.10748   1.11133   1.11578   1.11734
 Alpha virt. eigenvalues --    1.12686   1.15084   1.15584   1.15896   1.16148
 Alpha virt. eigenvalues --    1.17955   1.18747   1.19688   1.20625   1.21797
 Alpha virt. eigenvalues --    1.22320   1.23480   1.25118   1.25624   1.26626
 Alpha virt. eigenvalues --    1.28312   1.29148   1.29252   1.30722   1.32491
 Alpha virt. eigenvalues --    1.32592   1.33912   1.34356   1.35168   1.36944
 Alpha virt. eigenvalues --    1.37461   1.38684   1.40586   1.40885   1.41573
 Alpha virt. eigenvalues --    1.42270   1.44212   1.44327   1.45003   1.46228
 Alpha virt. eigenvalues --    1.46544   1.47695   1.48824   1.49766   1.50088
 Alpha virt. eigenvalues --    1.50801   1.52808   1.53960   1.54336   1.55569
 Alpha virt. eigenvalues --    1.56591   1.57291   1.57662   1.59496   1.60857
 Alpha virt. eigenvalues --    1.61099   1.63065   1.64196   1.66056   1.67356
 Alpha virt. eigenvalues --    1.67572   1.68365   1.68791   1.70074   1.71665
 Alpha virt. eigenvalues --    1.74526   1.75372   1.75650   1.76477   1.78478
 Alpha virt. eigenvalues --    1.79988   1.81550   1.84408   1.84474   1.85110
 Alpha virt. eigenvalues --    1.86417   1.87636   1.90430   1.91814   1.92945
 Alpha virt. eigenvalues --    1.93608   1.93736   1.95764   1.96224   1.97590
 Alpha virt. eigenvalues --    1.98115   1.99315   2.01864   2.03339   2.05273
 Alpha virt. eigenvalues --    2.05311   2.06856   2.08962   2.10480   2.10741
 Alpha virt. eigenvalues --    2.11365   2.13651   2.15149   2.17357   2.19101
 Alpha virt. eigenvalues --    2.19606   2.21668   2.21930   2.22304   2.24071
 Alpha virt. eigenvalues --    2.25602   2.25688   2.27354   2.27952   2.30748
 Alpha virt. eigenvalues --    2.32205   2.34219   2.36084   2.37976   2.39093
 Alpha virt. eigenvalues --    2.39780   2.40257   2.42151   2.42257   2.44559
 Alpha virt. eigenvalues --    2.44757   2.45814   2.46918   2.50935   2.51226
 Alpha virt. eigenvalues --    2.53078   2.55134   2.55296   2.57615   2.61629
 Alpha virt. eigenvalues --    2.62892   2.66800   2.69262   2.71573   2.71804
 Alpha virt. eigenvalues --    2.74069   2.75356   2.77114   2.81136   2.84597
 Alpha virt. eigenvalues --    2.84994   2.86115   2.87444   2.89308   2.95470
 Alpha virt. eigenvalues --    2.96709   2.98728   3.02428   3.04050   3.09936
 Alpha virt. eigenvalues --    3.10472   3.10625   3.11319   3.12077   3.12650
 Alpha virt. eigenvalues --    3.14062   3.17836   3.20942   3.21998   3.22950
 Alpha virt. eigenvalues --    3.24398   3.25384   3.27452   3.28578   3.30439
 Alpha virt. eigenvalues --    3.31012   3.31574   3.33328   3.36095   3.37171
 Alpha virt. eigenvalues --    3.37569   3.39130   3.41287   3.41594   3.44327
 Alpha virt. eigenvalues --    3.47130   3.48376   3.49097   3.49821   3.51967
 Alpha virt. eigenvalues --    3.53593   3.55605   3.56241   3.56532   3.59148
 Alpha virt. eigenvalues --    3.60507   3.62480   3.62696   3.65424   3.66277
 Alpha virt. eigenvalues --    3.68034   3.68913   3.70179   3.73551   3.73953
 Alpha virt. eigenvalues --    3.74520   3.75722   3.76552   3.78200   3.80055
 Alpha virt. eigenvalues --    3.80348   3.83932   3.84587   3.85739   3.88919
 Alpha virt. eigenvalues --    3.89785   3.89946   3.91196   3.92619   3.95067
 Alpha virt. eigenvalues --    3.96279   3.98038   3.99047   3.99447   4.01237
 Alpha virt. eigenvalues --    4.02359   4.03502   4.06778   4.07446   4.12291
 Alpha virt. eigenvalues --    4.13862   4.16865   4.17413   4.18194   4.20195
 Alpha virt. eigenvalues --    4.21911   4.22379   4.24405   4.25155   4.29251
 Alpha virt. eigenvalues --    4.29482   4.32467   4.35550   4.38011   4.39190
 Alpha virt. eigenvalues --    4.40926   4.41747   4.45065   4.48255   4.50309
 Alpha virt. eigenvalues --    4.50825   4.54671   4.55353   4.56673   4.57914
 Alpha virt. eigenvalues --    4.59467   4.63292   4.63620   4.64712   4.68632
 Alpha virt. eigenvalues --    4.68780   4.69454   4.72298   4.73730   4.74656
 Alpha virt. eigenvalues --    4.75818   4.78351   4.82263   4.84379   4.84765
 Alpha virt. eigenvalues --    4.87443   4.90876   4.96918   4.99280   5.03919
 Alpha virt. eigenvalues --    5.04884   5.06169   5.10436   5.11756   5.13311
 Alpha virt. eigenvalues --    5.15267   5.18447   5.18965   5.19768   5.23446
 Alpha virt. eigenvalues --    5.30925   5.31563   5.33991   5.36033   5.41610
 Alpha virt. eigenvalues --    5.43049   5.46367   5.47587   5.48567   5.54112
 Alpha virt. eigenvalues --    5.54518   5.56843   5.60558   5.62957   5.63632
 Alpha virt. eigenvalues --    5.66921   5.67405   5.71911   5.73994   5.77924
 Alpha virt. eigenvalues --    5.80860   5.86482   5.86928   5.96065   6.00631
 Alpha virt. eigenvalues --    6.08160   6.14496   6.18817   6.19879   6.20650
 Alpha virt. eigenvalues --    6.23831   6.26180   6.29691   6.31533   6.36555
 Alpha virt. eigenvalues --    6.37593   6.37947   6.42416   6.44232   6.48603
 Alpha virt. eigenvalues --    6.52315   6.56448   6.58223   6.71700   6.72362
 Alpha virt. eigenvalues --    6.76092   6.76365   6.81117   6.84516   6.84979
 Alpha virt. eigenvalues --    6.87028   6.88478   6.90798   6.94827   7.05589
 Alpha virt. eigenvalues --    7.08881   7.10134   7.15092   7.23576   7.36030
 Alpha virt. eigenvalues --    7.40086   7.53981   7.65942   7.86402   8.06976
 Alpha virt. eigenvalues --   15.11776  15.99336  16.79463  17.74124  18.29281
 Alpha virt. eigenvalues --   19.15551  20.16193  20.33744  20.97887
          Condensed to atoms (all electrons):
               1          2          3          4          5          6
     1  C    6.164997   0.471000  -0.199313  -0.104729  -0.530663   0.072378
     2  N    0.471000   6.891949   0.409956  -0.427276  -0.518747   0.132201
     3  C   -0.199313   0.409956   7.411700  -0.214325  -0.785899  -0.414476
     4  N   -0.104729  -0.427276  -0.214325   9.256218   0.518314  -0.797485
     5  C   -0.530663  -0.518747  -0.785899   0.518314   8.429015  -0.421996
     6  C    0.072378   0.132201  -0.414476  -0.797485  -0.421996   7.485285
     7  C    0.033689   0.164164  -0.009053  -0.055763  -0.400034  -1.218678
     8  O   -0.004039  -0.028382  -0.030933  -0.204216   0.092409   0.232833
     9  O   -0.007590  -0.041179   0.014770  -0.010948  -0.081591   0.023381
    10  H    0.354274  -0.038592   0.036195  -0.019162   0.014651  -0.028652
    11  H    0.392767  -0.009938  -0.012471   0.000472  -0.000404   0.004979
    12  H    0.389417  -0.007522  -0.010913   0.001123   0.000085   0.004131
    13  H    0.030960  -0.052444   0.252915  -0.144972  -0.047888  -0.072849
    14  H   -0.082244  -0.218418  -0.095118   0.079451   0.347515  -0.168882
    15  H    0.001383   0.009801   0.000712   0.011417  -0.007858  -0.084266
               7          8          9         10         11         12
     1  C    0.033689  -0.004039  -0.007590   0.354274   0.392767   0.389417
     2  N    0.164164  -0.028382  -0.041179  -0.038592  -0.009938  -0.007522
     3  C   -0.009053  -0.030933   0.014770   0.036195  -0.012471  -0.010913
     4  N   -0.055763  -0.204216  -0.010948  -0.019162   0.000472   0.001123
     5  C   -0.400034   0.092409  -0.081591   0.014651  -0.000404   0.000085
     6  C   -1.218678   0.232833   0.023381  -0.028652   0.004979   0.004131
     7  C    7.178335  -0.272243   0.071688   0.001491   0.000146   0.000306
     8  O   -0.272243   9.220389  -0.063523  -0.000694   0.000143   0.000128
     9  O    0.071688  -0.063523   8.525231  -0.002154   0.000043   0.000052
    10  H    0.001491  -0.000694  -0.002154   0.345049  -0.002576  -0.004105
    11  H    0.000146   0.000143   0.000043  -0.002576   0.330935   0.019597
    12  H    0.000306   0.000128   0.000052  -0.004105   0.019597   0.333927
    13  H    0.025448  -0.002438   0.000030   0.006280  -0.001014  -0.001951
    14  H    0.038414   0.008761  -0.007315  -0.011525  -0.001650  -0.001707
    15  H    0.131411  -0.097907   0.135847   0.000479  -0.000001   0.000001
              13         14         15
     1  C    0.030960  -0.082244   0.001383
     2  N   -0.052444  -0.218418   0.009801
     3  C    0.252915  -0.095118   0.000712
     4  N   -0.144972   0.079451   0.011417
     5  C   -0.047888   0.347515  -0.007858
     6  C   -0.072849  -0.168882  -0.084266
     7  C    0.025448   0.038414   0.131411
     8  O   -0.002438   0.008761  -0.097907
     9  O    0.000030  -0.007315   0.135847
    10  H    0.006280  -0.011525   0.000479
    11  H   -0.001014  -0.001650  -0.000001
    12  H   -0.001951  -0.001707   0.000001
    13  H    0.366940  -0.011232   0.000078
    14  H   -0.011232   0.562896  -0.005940
    15  H    0.000078  -0.005940   0.617530
 Mulliken charges:
               1
     1  C   -0.982285
     2  N    0.263427
     3  C   -0.353748
     4  N   -0.888119
     5  C   -0.606909
     6  C    1.252096
     7  C    0.310681
     8  O   -0.850289
     9  O   -0.556744
    10  H    0.349038
    11  H    0.278973
    12  H    0.277432
    13  H    0.652138
    14  H    0.566995
    15  H    0.287313
 Sum of Mulliken charges =   0.00000
 Mulliken charges with hydrogens summed into heavy atoms:
               1
     1  C   -0.076842
     2  N    0.263427
     3  C    0.298391
     4  N   -0.888119
     5  C   -0.039914
     6  C    1.252096
     7  C    0.310681
     8  O   -0.850289
     9  O   -0.269431
 Electronic spatial extent (au):  <R**2>=           1196.0489
 Charge=              0.0000 electrons
 Dipole moment (field-independent basis, Debye):
    X=              5.7062    Y=              3.9861    Z=             -0.0018  Tot=              6.9606
 Quadrupole moment (field-independent basis, Debye-Ang):
   XX=            -40.9445   YY=            -54.4919   ZZ=            -52.0416
   XY=             -6.3488   XZ=             -0.0126   YZ=             -0.0061
 Traceless Quadrupole moment (field-independent basis, Debye-Ang):
   XX=              8.2149   YY=             -5.3326   ZZ=             -2.8823
   XY=             -6.3488   XZ=             -0.0126   YZ=             -0.0061
 Octapole moment (field-independent basis, Debye-Ang**2):
  XXX=             15.5730  YYY=             13.9279  ZZZ=              0.0685  XYY=              9.6446
  XXY=             26.9907  XXZ=             -0.0753  XZZ=             -2.5519  YZZ=              0.5781
  YYZ=             -0.0633  XYZ=              0.0038
 Hexadecapole moment (field-independent basis, Debye-Ang**3):
 XXXX=           -989.6555 YYYY=           -327.6015 ZZZZ=            -57.9649 XXXY=            -87.8761
 XXXZ=             -0.3826 YYYX=            -14.3110 YYYZ=             -0.1854 ZZZX=              0.2248
 ZZZY=              0.0588 XXYY=           -223.5815 XXZZ=           -194.3460 YYZZ=            -68.2991
 XXYZ=              0.0873 YYXZ=             -0.1837 ZZXY=             -1.1581
 N-N= 4.470855490771D+02 E-N=-1.956158177623D+03  KE= 4.529397632462D+02
 ******************************Gaussian NBO Version 3.1******************************
             N A T U R A L   A T O M I C   O R B I T A L   A N D
          N A T U R A L   B O N D   O R B I T A L   A N A L Y S I S
 ******************************Gaussian NBO Version 3.1******************************
       /RESON  / : Allow strongly delocalized NBO set

 Analyzing the SCF density

 Job title: 15                                                              

 Storage needed:    916440 in NPA,   1220743 in NBO (********** available)
 GSVD:  LWork=       -7338 too small for GESVD, short by      627885 words or      627885 for optimal perf.


 NATURAL POPULATIONS:  Natural atomic orbital occupancies 
                                                          
   NAO  Atom  No  lang   Type(AO)    Occupancy      Energy
 ----------------------------------------------------------
     1    C    1  S      Cor( 1S)     1.99946     -10.48903
     2    C    1  S      Val( 2S)     1.09258      -0.35058
     3    C    1  S      Ryd( 3S)     0.00079       1.17241
     4    C    1  S      Ryd( 5S)     0.00006       4.44312
     5    C    1  S      Ryd( 4S)     0.00001       1.68869
     6    C    1  px     Val( 2p)     0.90472      -0.12282
     7    C    1  px     Ryd( 4p)     0.00177       1.15135
     8    C    1  px     Ryd( 5p)     0.00008       1.78816
     9    C    1  px     Ryd( 3p)     0.00002       0.97433
    10    C    1  py     Val( 2p)     1.16280      -0.16678
    11    C    1  py     Ryd( 4p)     0.00230       1.11122
    12    C    1  py     Ryd( 5p)     0.00005       2.00922
    13    C    1  py     Ryd( 3p)     0.00002       0.95095
    14    C    1  pz     Val( 2p)     1.21294      -0.17515
    15    C    1  pz     Ryd( 4p)     0.00067       1.02140
    16    C    1  pz     Ryd( 5p)     0.00004       1.94346
    17    C    1  pz     Ryd( 3p)     0.00002       0.83839
    18    C    1  dxy    Ryd( 4d)     0.00063       2.04640
    19    C    1  dxy    Ryd( 5d)     0.00008       3.59103
    20    C    1  dxy    Ryd( 3d)     0.00003       1.03537
    21    C    1  dxz    Ryd( 4d)     0.00186       1.58524
    22    C    1  dxz    Ryd( 5d)     0.00005       3.43921
    23    C    1  dxz    Ryd( 3d)     0.00003       1.07696
    24    C    1  dyz    Ryd( 4d)     0.00124       1.57686
    25    C    1  dyz    Ryd( 5d)     0.00002       3.26219
    26    C    1  dyz    Ryd( 3d)     0.00001       1.01144
    27    C    1  dx2y2  Ryd( 4d)     0.00118       1.96140
    28    C    1  dx2y2  Ryd( 5d)     0.00008       3.70785
    29    C    1  dx2y2  Ryd( 3d)     0.00002       1.16694
    30    C    1  dz2    Ryd( 4d)     0.00171       1.85299
    31    C    1  dz2    Ryd( 5d)     0.00004       3.62808
    32    C    1  dz2    Ryd( 3d)     0.00001       1.23155
    33    C    1  f(0)   Ryd( 5f)     0.00001       3.87281
    34    C    1  f(0)   Ryd( 4f)     0.00002       2.06128
    35    C    1  f(C1)  Ryd( 5f)     0.00012       4.20781
    36    C    1  f(C1)  Ryd( 4f)     0.00003       3.15185
    37    C    1  f(S1)  Ryd( 5f)     0.00009       3.93018
    38    C    1  f(S1)  Ryd( 4f)     0.00004       2.84148
    39    C    1  f(C2)  Ryd( 5f)     0.00002       3.91736
    40    C    1  f(C2)  Ryd( 4f)     0.00003       2.20583
    41    C    1  f(S2)  Ryd( 5f)     0.00001       3.91416
    42    C    1  f(S2)  Ryd( 4f)     0.00003       2.47501
    43    C    1  f(C3)  Ryd( 5f)     0.00002       4.19163
    44    C    1  f(C3)  Ryd( 4f)     0.00003       2.41425
    45    C    1  f(S3)  Ryd( 5f)     0.00006       4.21536
    46    C    1  f(S3)  Ryd( 4f)     0.00006       2.65710
 
    47    N    2  S      Cor( 1S)     1.99912     -14.60890
    48    N    2  S      Val( 2S)     1.15852      -0.56830
    49    N    2  S      Ryd( 3S)     0.00169       2.29903
    50    N    2  S      Ryd( 4S)     0.00006       2.92698
    51    N    2  S      Ryd( 5S)     0.00001       8.92204
    52    N    2  px     Val( 2p)     1.30925      -0.32285
    53    N    2  px     Ryd( 4p)     0.00280       2.87373
    54    N    2  px     Ryd( 5p)     0.00006       5.13972
    55    N    2  px     Ryd( 3p)     0.00004       1.43166
    56    N    2  py     Val( 2p)     1.33280      -0.33055
    57    N    2  py     Ryd( 4p)     0.00275       2.29194
    58    N    2  py     Ryd( 5p)     0.00009       4.75842
    59    N    2  py     Ryd( 3p)     0.00008       0.99831
    60    N    2  pz     Val( 2p)     1.49730      -0.33093
    61    N    2  pz     Ryd( 4p)     0.00331       0.83708
    62    N    2  pz     Ryd( 5p)     0.00003       3.39326
    63    N    2  pz     Ryd( 3p)     0.00006       0.69971
    64    N    2  dxy    Ryd( 4d)     0.00160       4.09230
    65    N    2  dxy    Ryd( 5d)     0.00030       5.52245
    66    N    2  dxy    Ryd( 3d)     0.00011       2.75719
    67    N    2  dxz    Ryd( 3d)     0.00096       1.64291
    68    N    2  dxz    Ryd( 5d)     0.00010       4.81150
    69    N    2  dxz    Ryd( 4d)     0.00007       1.72142
    70    N    2  dyz    Ryd( 3d)     0.00180       1.57045
    71    N    2  dyz    Ryd( 5d)     0.00007       4.67185
    72    N    2  dyz    Ryd( 4d)     0.00013       1.61085
    73    N    2  dx2y2  Ryd( 4d)     0.00251       4.17317
    74    N    2  dx2y2  Ryd( 5d)     0.00027       5.45980
    75    N    2  dx2y2  Ryd( 3d)     0.00006       3.29858
    76    N    2  dz2    Ryd( 3d)     0.00214       2.45958
    77    N    2  dz2    Ryd( 5d)     0.00012       5.64763
    78    N    2  dz2    Ryd( 4d)     0.00017       2.78794
    79    N    2  f(0)   Ryd( 4f)     0.00203       1.68724
    80    N    2  f(0)   Ryd( 5f)     0.00009       4.80355
    81    N    2  f(C1)  Ryd( 4f)     0.00207       2.53119
    82    N    2  f(C1)  Ryd( 5f)     0.00009       4.90882
    83    N    2  f(S1)  Ryd( 4f)     0.00169       2.07418
    84    N    2  f(S1)  Ryd( 5f)     0.00008       4.83419
    85    N    2  f(C2)  Ryd( 4f)     0.00027       1.69407
    86    N    2  f(C2)  Ryd( 5f)     0.00005       4.92251
    87    N    2  f(S2)  Ryd( 4f)     0.00060       1.65604
    88    N    2  f(S2)  Ryd( 5f)     0.00006       4.86430
    89    N    2  f(C3)  Ryd( 4f)     0.00120       2.31279
    90    N    2  f(C3)  Ryd( 5f)     0.00021       5.50351
    91    N    2  f(S3)  Ryd( 4f)     0.00071       2.54843
    92    N    2  f(S3)  Ryd( 5f)     0.00014       5.37843
 
    93    C    3  S      Cor( 1S)     1.99921     -10.43660
    94    C    3  S      Val( 2S)     0.85217      -0.11626
    95    C    3  S      Ryd( 4S)     0.00347       1.90284
    96    C    3  S      Ryd( 5S)     0.00019       3.09297
    97    C    3  S      Ryd( 3S)     0.00004       1.42309
    98    C    3  px     Val( 2p)     1.01064      -0.07069
    99    C    3  px     Ryd( 4p)     0.00667       1.84970
   100    C    3  px     Ryd( 3p)     0.00023       0.95131
   101    C    3  px     Ryd( 5p)     0.00006       1.93301
   102    C    3  py     Val( 2p)     0.92392      -0.04457
   103    C    3  py     Ryd( 4p)     0.00580       1.76408
   104    C    3  py     Ryd( 3p)     0.00019       0.81324
   105    C    3  py     Ryd( 5p)     0.00006       1.93081
   106    C    3  pz     Val( 2p)     1.01912      -0.13966
   107    C    3  pz     Ryd( 5p)     0.00362       1.13617
   108    C    3  pz     Ryd( 3p)     0.00004       0.66384
   109    C    3  pz     Ryd( 4p)     0.00009       0.98331
   110    C    3  dxy    Ryd( 3d)     0.00373       1.45883
   111    C    3  dxy    Ryd( 5d)     0.00021       4.05756
   112    C    3  dxy    Ryd( 4d)     0.00009       3.13825
   113    C    3  dxz    Ryd( 3d)     0.00130       1.12200
   114    C    3  dxz    Ryd( 5d)     0.00040       3.08766
   115    C    3  dxz    Ryd( 4d)     0.00003       2.10434
   116    C    3  dyz    Ryd( 3d)     0.00098       1.01707
   117    C    3  dyz    Ryd( 5d)     0.00047       3.22687
   118    C    3  dyz    Ryd( 4d)     0.00001       2.12519
   119    C    3  dx2y2  Ryd( 3d)     0.00046       2.10714
   120    C    3  dx2y2  Ryd( 5d)     0.00044       4.21053
   121    C    3  dx2y2  Ryd( 4d)     0.00005       2.67777
   122    C    3  dz2    Ryd( 3d)     0.00079       1.68858
   123    C    3  dz2    Ryd( 5d)     0.00026       4.64396
   124    C    3  dz2    Ryd( 4d)     0.00004       3.30842
   125    C    3  f(0)   Ryd( 5f)     0.00017       2.98519
   126    C    3  f(0)   Ryd( 4f)     0.00006       2.62543
   127    C    3  f(C1)  Ryd( 4f)     0.00014       3.37591
   128    C    3  f(C1)  Ryd( 5f)     0.00006       3.37813
   129    C    3  f(S1)  Ryd( 4f)     0.00014       3.29795
   130    C    3  f(S1)  Ryd( 5f)     0.00002       3.52406
   131    C    3  f(C2)  Ryd( 5f)     0.00000       3.19928
   132    C    3  f(C2)  Ryd( 4f)     0.00001       2.65840
   133    C    3  f(S2)  Ryd( 5f)     0.00002       3.23368
   134    C    3  f(S2)  Ryd( 4f)     0.00003       2.94599
   135    C    3  f(C3)  Ryd( 4f)     0.00009       4.14982
   136    C    3  f(C3)  Ryd( 5f)     0.00003       5.21080
   137    C    3  f(S3)  Ryd( 4f)     0.00010       4.11612
   138    C    3  f(S3)  Ryd( 5f)     0.00003       5.14083
 
   139    N    4  S      Cor( 1S)     1.99936     -14.49308
   140    N    4  S      Val( 2S)     1.33126      -0.53393
   141    N    4  S      Ryd( 4S)     0.00119       3.16004
   142    N    4  S      Ryd( 3S)     0.00013       1.74771
   143    N    4  S      Ryd( 5S)     0.00001       9.91927
   144    N    4  px     Val( 2p)     1.26323      -0.16821
   145    N    4  px     Ryd( 4p)     0.00271       2.40305
   146    N    4  px     Ryd( 3p)     0.00013       1.02752
   147    N    4  px     Ryd( 5p)     0.00006       3.87894
   148    N    4  py     Val( 2p)     1.55379      -0.23325
   149    N    4  py     Ryd( 4p)     0.00436       1.85054
   150    N    4  py     Ryd( 3p)     0.00011       1.19090
   151    N    4  py     Ryd( 5p)     0.00012       4.40353
   152    N    4  pz     Val( 2p)     1.19468      -0.18594
   153    N    4  pz     Ryd( 4p)     0.00069       1.26563
   154    N    4  pz     Ryd( 3p)     0.00008       0.73363
   155    N    4  pz     Ryd( 5p)     0.00002       2.99410
   156    N    4  dxy    Ryd( 3d)     0.00625       2.34132
   157    N    4  dxy    Ryd( 5d)     0.00018       4.73249
   158    N    4  dxy    Ryd( 4d)     0.00011       2.62419
   159    N    4  dxz    Ryd( 3d)     0.00165       1.43761
   160    N    4  dxz    Ryd( 5d)     0.00018       4.51355
   161    N    4  dxz    Ryd( 4d)     0.00007       1.86230
   162    N    4  dyz    Ryd( 3d)     0.00442       1.23216
   163    N    4  dyz    Ryd( 5d)     0.00008       4.35224
   164    N    4  dyz    Ryd( 4d)     0.00005       1.85522
   165    N    4  dx2y2  Ryd( 4d)     0.00657       2.91480
   166    N    4  dx2y2  Ryd( 5d)     0.00024       4.86728
   167    N    4  dx2y2  Ryd( 3d)     0.00015       2.65348
   168    N    4  dz2    Ryd( 3d)     0.00952       1.58920
   169    N    4  dz2    Ryd( 5d)     0.00003       4.65501
   170    N    4  dz2    Ryd( 4d)     0.00006       2.50239
   171    N    4  f(0)   Ryd( 5f)     0.00021       3.81825
   172    N    4  f(0)   Ryd( 4f)     0.00001       3.29408
   173    N    4  f(C1)  Ryd( 5f)     0.00012       4.43368
   174    N    4  f(C1)  Ryd( 4f)     0.00005       4.10492
   175    N    4  f(S1)  Ryd( 5f)     0.00012       4.51600
   176    N    4  f(S1)  Ryd( 4f)     0.00001       3.86292
   177    N    4  f(C2)  Ryd( 5f)     0.00002       3.83060
   178    N    4  f(C2)  Ryd( 4f)     0.00004       3.56780
   179    N    4  f(S2)  Ryd( 5f)     0.00003       3.75538
   180    N    4  f(S2)  Ryd( 4f)     0.00002       3.64004
   181    N    4  f(C3)  Ryd( 5f)     0.00017       5.31307
   182    N    4  f(C3)  Ryd( 4f)     0.00010       4.50927
   183    N    4  f(S3)  Ryd( 5f)     0.00005       4.97018
   184    N    4  f(S3)  Ryd( 4f)     0.00022       4.22027
 
   185    C    5  S      Cor( 1S)     1.99905     -10.41104
   186    C    5  S      Val( 2S)     0.91194      -0.14339
   187    C    5  S      Ryd( 4S)     0.00154       2.02614
   188    C    5  S      Ryd( 5S)     0.00018       2.82207
   189    C    5  S      Ryd( 3S)     0.00007       1.48404
   190    C    5  px     Val( 2p)     0.89457      -0.04777
   191    C    5  px     Ryd( 4p)     0.00485       1.63216
   192    C    5  px     Ryd( 5p)     0.00018       1.97235
   193    C    5  px     Ryd( 3p)     0.00009       0.98670
   194    C    5  py     Val( 2p)     1.15909      -0.09397
   195    C    5  py     Ryd( 4p)     0.00314       2.04354
   196    C    5  py     Ryd( 5p)     0.00011       2.14893
   197    C    5  py     Ryd( 3p)     0.00020       1.04100
   198    C    5  pz     Val( 2p)     1.03397      -0.14359
   199    C    5  pz     Ryd( 4p)     0.00348       1.06159
   200    C    5  pz     Ryd( 5p)     0.00019       1.37995
   201    C    5  pz     Ryd( 3p)     0.00010       0.65304
   202    C    5  dxy    Ryd( 3d)     0.00062       1.91154
   203    C    5  dxy    Ryd( 5d)     0.00056       4.23159
   204    C    5  dxy    Ryd( 4d)     0.00008       3.68419
   205    C    5  dxz    Ryd( 3d)     0.00129       1.07010
   206    C    5  dxz    Ryd( 5d)     0.00020       3.12126
   207    C    5  dxz    Ryd( 4d)     0.00009       2.44371
   208    C    5  dyz    Ryd( 3d)     0.00066       1.01506
   209    C    5  dyz    Ryd( 5d)     0.00064       3.05649
   210    C    5  dyz    Ryd( 4d)     0.00002       2.36723
   211    C    5  dx2y2  Ryd( 3d)     0.00079       1.34607
   212    C    5  dx2y2  Ryd( 4d)     0.00033       4.14046
   213    C    5  dx2y2  Ryd( 5d)     0.00006       4.22037
   214    C    5  dz2    Ryd( 3d)     0.00057       1.71328
   215    C    5  dz2    Ryd( 4d)     0.00024       4.19024
   216    C    5  dz2    Ryd( 5d)     0.00005       4.28608
   217    C    5  f(0)   Ryd( 5f)     0.00016       3.46835
   218    C    5  f(0)   Ryd( 4f)     0.00002       2.19171
   219    C    5  f(C1)  Ryd( 5f)     0.00018       3.78276
   220    C    5  f(C1)  Ryd( 4f)     0.00003       3.65959
   221    C    5  f(S1)  Ryd( 5f)     0.00026       3.73943
   222    C    5  f(S1)  Ryd( 4f)     0.00004       2.97628
   223    C    5  f(C2)  Ryd( 5f)     0.00001       3.64020
   224    C    5  f(C2)  Ryd( 4f)     0.00002       2.47622
   225    C    5  f(S2)  Ryd( 5f)     0.00001       3.60215
   226    C    5  f(S2)  Ryd( 4f)     0.00001       2.24887
   227    C    5  f(C3)  Ryd( 4f)     0.00002       4.47140
   228    C    5  f(C3)  Ryd( 5f)     0.00006       4.58638
   229    C    5  f(S3)  Ryd( 4f)     0.00013       4.36627
   230    C    5  f(S3)  Ryd( 5f)     0.00005       5.11910
 
   231    C    6  S      Cor( 1S)     1.99889     -10.38015
   232    C    6  S      Val( 2S)     0.84850      -0.06925
   233    C    6  S      Ryd( 4S)     0.00271       1.92740
   234    C    6  S      Ryd( 5S)     0.00015       2.23597
   235    C    6  S      Ryd( 3S)     0.00006       1.69583
   236    C    6  px     Val( 2p)     1.09047      -0.09398
   237    C    6  px     Ryd( 5p)     0.00471       2.42367
   238    C    6  px     Ryd( 4p)     0.00012       2.03511
   239    C    6  px     Ryd( 3p)     0.00008       0.90853
   240    C    6  py     Val( 2p)     0.99100      -0.05330
   241    C    6  py     Ryd( 4p)     0.00773       1.82576
   242    C    6  py     Ryd( 5p)     0.00028       1.91418
   243    C    6  py     Ryd( 3p)     0.00012       1.08091
   244    C    6  pz     Val( 2p)     1.11417      -0.12826
   245    C    6  pz     Ryd( 4p)     0.00249       1.05745
   246    C    6  pz     Ryd( 5p)     0.00028       1.45986
   247    C    6  pz     Ryd( 3p)     0.00010       0.68408
   248    C    6  dxy    Ryd( 3d)     0.00167       2.29891
   249    C    6  dxy    Ryd( 4d)     0.00066       4.14653
   250    C    6  dxy    Ryd( 5d)     0.00008       4.81058
   251    C    6  dxz    Ryd( 3d)     0.00032       1.40206
   252    C    6  dxz    Ryd( 5d)     0.00022       3.19791
   253    C    6  dxz    Ryd( 4d)     0.00006       2.01865
   254    C    6  dyz    Ryd( 3d)     0.00197       1.04993
   255    C    6  dyz    Ryd( 5d)     0.00028       3.12114
   256    C    6  dyz    Ryd( 4d)     0.00007       2.29695
   257    C    6  dx2y2  Ryd( 3d)     0.00235       2.36478
   258    C    6  dx2y2  Ryd( 4d)     0.00042       3.94823
   259    C    6  dx2y2  Ryd( 5d)     0.00005       4.48760
   260    C    6  dz2    Ryd( 3d)     0.00224       1.59141
   261    C    6  dz2    Ryd( 4d)     0.00037       4.14377
   262    C    6  dz2    Ryd( 5d)     0.00009       4.46487
   263    C    6  f(0)   Ryd( 4f)     0.00049       1.53755
   264    C    6  f(0)   Ryd( 5f)     0.00040       3.44800
   265    C    6  f(C1)  Ryd( 4f)     0.00120       1.97473
   266    C    6  f(C1)  Ryd( 5f)     0.00052       3.65579
   267    C    6  f(S1)  Ryd( 4f)     0.00080       1.65546
   268    C    6  f(S1)  Ryd( 5f)     0.00017       3.53814
   269    C    6  f(C2)  Ryd( 4f)     0.00080       1.59592
   270    C    6  f(C2)  Ryd( 5f)     0.00003       3.47255
   271    C    6  f(S2)  Ryd( 4f)     0.00107       1.43165
   272    C    6  f(S2)  Ryd( 5f)     0.00006       3.54746
   273    C    6  f(C3)  Ryd( 4f)     0.00091       2.50117
   274    C    6  f(C3)  Ryd( 5f)     0.00014       4.47152
   275    C    6  f(S3)  Ryd( 4f)     0.00205       2.34929
   276    C    6  f(S3)  Ryd( 5f)     0.00026       4.32952
 
   277    C    7  S      Cor( 1S)     1.99906     -10.52013
   278    C    7  S      Val( 2S)     0.78517      -0.08883
   279    C    7  S      Ryd( 4S)     0.00404       1.98002
   280    C    7  S      Ryd( 3S)     0.00029       1.06922
   281    C    7  S      Ryd( 5S)     0.00012       2.95298
   282    C    7  px     Val( 2p)     0.91729      -0.02841
   283    C    7  px     Ryd( 5p)     0.00738       1.62169
   284    C    7  px     Ryd( 3p)     0.00026       0.87660
   285    C    7  px     Ryd( 4p)     0.00003       1.61183
   286    C    7  py     Val( 2p)     0.72965      -0.00436
   287    C    7  py     Ryd( 4p)     0.01114       1.64781
   288    C    7  py     Ryd( 3p)     0.00017       0.93229
   289    C    7  py     Ryd( 5p)     0.00008       2.37949
   290    C    7  pz     Val( 2p)     0.76400      -0.10656
   291    C    7  pz     Ryd( 5p)     0.00070       1.18381
   292    C    7  pz     Ryd( 3p)     0.00007       0.55066
   293    C    7  pz     Ryd( 4p)     0.00008       1.17151
   294    C    7  dxy    Ryd( 4d)     0.00058       4.17028
   295    C    7  dxy    Ryd( 3d)     0.00006       2.04844
   296    C    7  dxy    Ryd( 5d)     0.00008       4.67961
   297    C    7  dxz    Ryd( 5d)     0.00069       3.34877
   298    C    7  dxz    Ryd( 3d)     0.00010       1.01613
   299    C    7  dxz    Ryd( 4d)     0.00006       2.66973
   300    C    7  dyz    Ryd( 5d)     0.00134       3.32455
   301    C    7  dyz    Ryd( 3d)     0.00015       1.24203
   302    C    7  dyz    Ryd( 4d)     0.00003       2.87052
   303    C    7  dx2y2  Ryd( 5d)     0.00181       4.23559
   304    C    7  dx2y2  Ryd( 3d)     0.00011       1.90105
   305    C    7  dx2y2  Ryd( 4d)     0.00003       3.86232
   306    C    7  dz2    Ryd( 5d)     0.00021       4.49687
   307    C    7  dz2    Ryd( 3d)     0.00018       2.41027
   308    C    7  dz2    Ryd( 4d)     0.00022       3.85273
   309    C    7  f(0)   Ryd( 5f)     0.00015       3.38182
   310    C    7  f(0)   Ryd( 4f)     0.00003       2.62956
   311    C    7  f(C1)  Ryd( 5f)     0.00017       3.60077
   312    C    7  f(C1)  Ryd( 4f)     0.00002       3.40838
   313    C    7  f(S1)  Ryd( 5f)     0.00006       3.52918
   314    C    7  f(S1)  Ryd( 4f)     0.00003       3.28044
   315    C    7  f(C2)  Ryd( 5f)     0.00002       3.35525
   316    C    7  f(C2)  Ryd( 4f)     0.00011       2.79707
   317    C    7  f(S2)  Ryd( 5f)     0.00001       3.51327
   318    C    7  f(S2)  Ryd( 4f)     0.00006       2.92367
   319    C    7  f(C3)  Ryd( 4f)     0.00008       4.41016
   320    C    7  f(C3)  Ryd( 5f)     0.00004       7.54000
   321    C    7  f(S3)  Ryd( 4f)     0.00015       4.49020
   322    C    7  f(S3)  Ryd( 5f)     0.00002       5.34234
 
   323    O    8  S      Cor( 1S)     1.99979     -19.30979
   324    O    8  S      Val( 2S)     1.71062      -0.97723
   325    O    8  S      Ryd( 4S)     0.00122       3.11320
   326    O    8  S      Ryd( 3S)     0.00016       1.47787
   327    O    8  S      Ryd( 5S)     0.00002       8.72092
   328    O    8  px     Val( 2p)     1.71903      -0.31160
   329    O    8  px     Ryd( 4p)     0.00101       1.30835
   330    O    8  px     Ryd( 3p)     0.00004       0.61957
   331    O    8  px     Ryd( 5p)     0.00005       4.98511
   332    O    8  py     Val( 2p)     1.68095      -0.31123
   333    O    8  py     Ryd( 4p)     0.00171       1.22361
   334    O    8  py     Ryd( 3p)     0.00008       0.58468
   335    O    8  py     Ryd( 5p)     0.00004       5.21307
   336    O    8  pz     Val( 2p)     1.45306      -0.26532
   337    O    8  pz     Ryd( 4p)     0.00080       0.88813
   338    O    8  pz     Ryd( 3p)     0.00001       0.52330
   339    O    8  pz     Ryd( 5p)     0.00000       4.18842
   340    O    8  dxy    Ryd( 3d)     0.00828       2.05430
   341    O    8  dxy    Ryd( 4d)     0.00017       2.87391
   342    O    8  dxy    Ryd( 5d)     0.00002       6.74644
   343    O    8  dxz    Ryd( 3d)     0.00270       1.47755
   344    O    8  dxz    Ryd( 4d)     0.00003       1.60542
   345    O    8  dxz    Ryd( 5d)     0.00002       6.57921
   346    O    8  dyz    Ryd( 3d)     0.00428       1.49954
   347    O    8  dyz    Ryd( 4d)     0.00009       1.61790
   348    O    8  dyz    Ryd( 5d)     0.00002       6.55195
   349    O    8  dx2y2  Ryd( 3d)     0.00534       1.86096
   350    O    8  dx2y2  Ryd( 4d)     0.00003       1.87772
   351    O    8  dx2y2  Ryd( 5d)     0.00006       6.62644
   352    O    8  dz2    Ryd( 3d)     0.00284       1.61403
   353    O    8  dz2    Ryd( 4d)     0.00008       2.31292
   354    O    8  dz2    Ryd( 5d)     0.00000       6.65009
   355    O    8  f(0)   Ryd( 4f)     0.00012       3.03968
   356    O    8  f(0)   Ryd( 5f)     0.00000       5.60653
   357    O    8  f(C1)  Ryd( 4f)     0.00009       3.35792
   358    O    8  f(C1)  Ryd( 5f)     0.00002       5.74396
   359    O    8  f(S1)  Ryd( 4f)     0.00008       3.30270
   360    O    8  f(S1)  Ryd( 5f)     0.00001       5.77039
   361    O    8  f(C2)  Ryd( 4f)     0.00004       2.99878
   362    O    8  f(C2)  Ryd( 5f)     0.00002       5.84103
   363    O    8  f(S2)  Ryd( 4f)     0.00039       3.12097
   364    O    8  f(S2)  Ryd( 5f)     0.00002       5.67486
   365    O    8  f(C3)  Ryd( 4f)     0.00036       3.77109
   366    O    8  f(C3)  Ryd( 5f)     0.00002       6.09777
   367    O    8  f(S3)  Ryd( 4f)     0.00049       3.60755
   368    O    8  f(S3)  Ryd( 5f)     0.00002       6.02694
 
   369    O    9  S      Cor( 1S)     1.99978     -19.45097
   370    O    9  S      Val( 2S)     1.67466      -1.02188
   371    O    9  S      Ryd( 3S)     0.00056       1.18545
   372    O    9  S      Ryd( 4S)     0.00016       2.82263
   373    O    9  S      Ryd( 5S)     0.00001       9.73600
   374    O    9  px     Val( 2p)     1.54931      -0.36076
   375    O    9  px     Ryd( 4p)     0.00063       1.14614
   376    O    9  px     Ryd( 3p)     0.00013       0.74215
   377    O    9  px     Ryd( 5p)     0.00005       5.10715
   378    O    9  py     Val( 2p)     1.61293      -0.38040
   379    O    9  py     Ryd( 4p)     0.00092       0.95724
   380    O    9  py     Ryd( 3p)     0.00010       0.53358
   381    O    9  py     Ryd( 5p)     0.00008       5.11898
   382    O    9  pz     Val( 2p)     1.85688      -0.40394
   383    O    9  pz     Ryd( 4p)     0.00119       0.75949
   384    O    9  pz     Ryd( 3p)     0.00005       0.52956
   385    O    9  pz     Ryd( 5p)     0.00001       4.12057
   386    O    9  dxy    Ryd( 3d)     0.00367       1.73567
   387    O    9  dxy    Ryd( 4d)     0.00012       2.47306
   388    O    9  dxy    Ryd( 5d)     0.00004       6.65915
   389    O    9  dxz    Ryd( 3d)     0.00142       1.12841
   390    O    9  dxz    Ryd( 4d)     0.00006       1.93599
   391    O    9  dxz    Ryd( 5d)     0.00002       6.44923
   392    O    9  dyz    Ryd( 3d)     0.00363       1.35796
   393    O    9  dyz    Ryd( 4d)     0.00005       1.74017
   394    O    9  dyz    Ryd( 5d)     0.00004       6.48516
   395    O    9  dx2y2  Ryd( 3d)     0.00621       1.98971
   396    O    9  dx2y2  Ryd( 4d)     0.00015       2.21325
   397    O    9  dx2y2  Ryd( 5d)     0.00006       6.96881
   398    O    9  dz2    Ryd( 3d)     0.00309       1.47556
   399    O    9  dz2    Ryd( 4d)     0.00014       2.29875
   400    O    9  dz2    Ryd( 5d)     0.00001       6.68975
   401    O    9  f(0)   Ryd( 4f)     0.00054       2.74041
   402    O    9  f(0)   Ryd( 5f)     0.00001       5.95915
   403    O    9  f(C1)  Ryd( 4f)     0.00022       3.25863
   404    O    9  f(C1)  Ryd( 5f)     0.00001       6.21200
   405    O    9  f(S1)  Ryd( 4f)     0.00019       3.29302
   406    O    9  f(S1)  Ryd( 5f)     0.00001       6.10549
   407    O    9  f(C2)  Ryd( 4f)     0.00002       2.87409
   408    O    9  f(C2)  Ryd( 5f)     0.00001       6.08456
   409    O    9  f(S2)  Ryd( 4f)     0.00015       2.75268
   410    O    9  f(S2)  Ryd( 5f)     0.00002       6.02573
   411    O    9  f(C3)  Ryd( 4f)     0.00015       4.37042
   412    O    9  f(C3)  Ryd( 5f)     0.00006       6.57185
   413    O    9  f(S3)  Ryd( 4f)     0.00004       3.72775
   414    O    9  f(S3)  Ryd( 5f)     0.00002       6.43116
 
   415    H   10  S      Val( 1S)     0.77921      -0.01797
   416    H   10  S      Ryd( 4S)     0.00016       1.78686
   417    H   10  S      Ryd( 2S)     0.00014       0.52968
   418    H   10  S      Ryd( 3S)     0.00003       1.35582
   419    H   10  px     Ryd( 2p)     0.00028       0.98489
   420    H   10  px     Ryd( 4p)     0.00003       3.81565
   421    H   10  px     Ryd( 3p)     0.00002       1.96481
   422    H   10  py     Ryd( 2p)     0.00072       1.15877
   423    H   10  py     Ryd( 4p)     0.00011       3.99795
   424    H   10  py     Ryd( 3p)     0.00001       3.79897
   425    H   10  pz     Ryd( 2p)     0.00027       0.79773
   426    H   10  pz     Ryd( 4p)     0.00006       3.72350
   427    H   10  pz     Ryd( 3p)     0.00003       1.86376
   428    H   10  dxy    Ryd( 3d)     0.00001       2.16382
   429    H   10  dxy    Ryd( 4d)     0.00001       3.93621
   430    H   10  dxz    Ryd( 3d)     0.00002       1.84650
   431    H   10  dxz    Ryd( 4d)     0.00001       3.16840
   432    H   10  dyz    Ryd( 3d)     0.00002       1.99449
   433    H   10  dyz    Ryd( 4d)     0.00002       3.81344
   434    H   10  dx2y2  Ryd( 3d)     0.00013       2.26785
   435    H   10  dx2y2  Ryd( 4d)     0.00001       4.17095
   436    H   10  dz2    Ryd( 3d)     0.00007       2.00332
   437    H   10  dz2    Ryd( 4d)     0.00001       3.49662
 
   438    H   11  S      Val( 1S)     0.78430      -0.01514
   439    H   11  S      Ryd( 4S)     0.00022       1.83900
   440    H   11  S      Ryd( 2S)     0.00012       0.40435
   441    H   11  S      Ryd( 3S)     0.00003       1.36462
   442    H   11  px     Ryd( 2p)     0.00042       1.09224
   443    H   11  px     Ryd( 4p)     0.00003       3.88062
   444    H   11  px     Ryd( 3p)     0.00003       2.15072
   445    H   11  py     Ryd( 2p)     0.00020       1.08232
   446    H   11  py     Ryd( 4p)     0.00005       3.63123
   447    H   11  py     Ryd( 3p)     0.00002       1.91965
   448    H   11  pz     Ryd( 2p)     0.00051       1.18877
   449    H   11  pz     Ryd( 4p)     0.00007       3.99672
   450    H   11  pz     Ryd( 3p)     0.00001       2.86410
   451    H   11  dxy    Ryd( 3d)     0.00003       2.15171
   452    H   11  dxy    Ryd( 4d)     0.00001       3.22073
   453    H   11  dxz    Ryd( 3d)     0.00009       2.17841
   454    H   11  dxz    Ryd( 4d)     0.00001       4.01836
   455    H   11  dyz    Ryd( 3d)     0.00005       2.19495
   456    H   11  dyz    Ryd( 4d)     0.00001       3.53972
   457    H   11  dx2y2  Ryd( 3d)     0.00002       2.22174
   458    H   11  dx2y2  Ryd( 4d)     0.00001       3.34544
   459    H   11  dz2    Ryd( 3d)     0.00006       2.26784
   460    H   11  dz2    Ryd( 4d)     0.00001       3.88187
 
   461    H   12  S      Val( 1S)     0.78398      -0.01544
   462    H   12  S      Ryd( 4S)     0.00023       1.83053
   463    H   12  S      Ryd( 2S)     0.00012       0.41662
   464    H   12  S      Ryd( 3S)     0.00003       1.35473
   465    H   12  px     Ryd( 2p)     0.00044       1.08894
   466    H   12  px     Ryd( 4p)     0.00003       3.89328
   467    H   12  px     Ryd( 3p)     0.00003       2.19497
   468    H   12  py     Ryd( 2p)     0.00022       1.08859
   469    H   12  py     Ryd( 4p)     0.00005       3.65053
   470    H   12  py     Ryd( 3p)     0.00002       1.96454
   471    H   12  pz     Ryd( 2p)     0.00047       1.16645
   472    H   12  pz     Ryd( 4p)     0.00007       3.95204
   473    H   12  pz     Ryd( 3p)     0.00001       2.82212
   474    H   12  dxy    Ryd( 3d)     0.00003       2.14710
   475    H   12  dxy    Ryd( 4d)     0.00001       3.28433
   476    H   12  dxz    Ryd( 3d)     0.00009       2.16124
   477    H   12  dxz    Ryd( 4d)     0.00001       4.01061
   478    H   12  dyz    Ryd( 3d)     0.00005       2.18304
   479    H   12  dyz    Ryd( 4d)     0.00001       3.55189
   480    H   12  dx2y2  Ryd( 3d)     0.00002       2.20159
   481    H   12  dx2y2  Ryd( 4d)     0.00001       3.40125
   482    H   12  dz2    Ryd( 3d)     0.00005       2.23095
   483    H   12  dz2    Ryd( 4d)     0.00002       3.83980
 
   484    H   13  S      Val( 1S)     0.80289      -0.00859
   485    H   13  S      Ryd( 4S)     0.00021       1.83577
   486    H   13  S      Ryd( 2S)     0.00012       0.49418
   487    H   13  S      Ryd( 3S)     0.00004       1.44924
   488    H   13  px     Ryd( 2p)     0.00020       0.81656
   489    H   13  px     Ryd( 4p)     0.00020       4.23855
   490    H   13  px     Ryd( 3p)     0.00002       2.91637
   491    H   13  py     Ryd( 2p)     0.00082       0.75330
   492    H   13  py     Ryd( 4p)     0.00015       4.30481
   493    H   13  py     Ryd( 3p)     0.00003       3.02382
   494    H   13  pz     Ryd( 2p)     0.00138       0.54066
   495    H   13  pz     Ryd( 4p)     0.00001       3.95837
   496    H   13  pz     Ryd( 3p)     0.00001       1.66137
   497    H   13  dxy    Ryd( 3d)     0.00017       1.80891
   498    H   13  dxy    Ryd( 4d)     0.00005       4.32664
   499    H   13  dxz    Ryd( 3d)     0.00003       1.57206
   500    H   13  dxz    Ryd( 4d)     0.00001       3.76457
   501    H   13  dyz    Ryd( 3d)     0.00003       1.59416
   502    H   13  dyz    Ryd( 4d)     0.00001       3.74810
   503    H   13  dx2y2  Ryd( 3d)     0.00004       2.00587
   504    H   13  dx2y2  Ryd( 4d)     0.00002       4.46793
   505    H   13  dz2    Ryd( 3d)     0.00012       1.68736
   506    H   13  dz2    Ryd( 4d)     0.00005       3.82984
 
   507    H   14  S      Val( 1S)     0.77007       0.01221
   508    H   14  S      Ryd( 3S)     0.00034       1.79543
   509    H   14  S      Ryd( 4S)     0.00016       1.90410
   510    H   14  S      Ryd( 2S)     0.00010       0.75539
   511    H   14  px     Ryd( 4p)     0.00001       3.89367
   512    H   14  px     Ryd( 3p)     0.00006       2.31847
   513    H   14  px     Ryd( 2p)     0.00004       1.92910
   514    H   14  py     Ryd( 4p)     0.00027       4.69065
   515    H   14  py     Ryd( 3p)     0.00004       3.59005
   516    H   14  py     Ryd( 2p)     0.00007       1.76416
   517    H   14  pz     Ryd( 4p)     0.00005       3.61773
   518    H   14  pz     Ryd( 3p)     0.00005       1.88049
   519    H   14  pz     Ryd( 2p)     0.00004       1.48527
   520    H   14  dxy    Ryd( 3d)     0.00005       1.51873
   521    H   14  dxy    Ryd( 4d)     0.00003       4.38191
   522    H   14  dxz    Ryd( 3d)     0.00005       1.34932
   523    H   14  dxz    Ryd( 4d)     0.00000       3.58847
   524    H   14  dyz    Ryd( 3d)     0.00004       1.27589
   525    H   14  dyz    Ryd( 4d)     0.00005       4.12666
   526    H   14  dx2y2  Ryd( 3d)     0.00009       1.79779
   527    H   14  dx2y2  Ryd( 4d)     0.00003       4.34165
   528    H   14  dz2    Ryd( 3d)     0.00003       1.62878
   529    H   14  dz2    Ryd( 4d)     0.00003       3.87895
 
   530    H   15  S      Val( 1S)     0.49262       0.14358
   531    H   15  S      Ryd( 4S)     0.00116       1.64876
   532    H   15  S      Ryd( 3S)     0.00024       1.52595
   533    H   15  S      Ryd( 2S)     0.00013       0.73023
   534    H   15  px     Ryd( 2p)     0.00045       2.03305
   535    H   15  px     Ryd( 4p)     0.00035       4.50226
   536    H   15  px     Ryd( 3p)     0.00001       3.07335
   537    H   15  py     Ryd( 2p)     0.00031       1.29993
   538    H   15  py     Ryd( 4p)     0.00006       3.67919
   539    H   15  py     Ryd( 3p)     0.00001       2.75695
   540    H   15  pz     Ryd( 2p)     0.00070       1.14435
   541    H   15  pz     Ryd( 4p)     0.00005       3.44972
   542    H   15  pz     Ryd( 3p)     0.00001       2.42034
   543    H   15  dxy    Ryd( 3d)     0.00010       1.20961
   544    H   15  dxy    Ryd( 4d)     0.00001       4.38270
   545    H   15  dxz    Ryd( 3d)     0.00012       1.14892
   546    H   15  dxz    Ryd( 4d)     0.00000       4.25203
   547    H   15  dyz    Ryd( 3d)     0.00007       1.14203
   548    H   15  dyz    Ryd( 4d)     0.00000       3.78703
   549    H   15  dx2y2  Ryd( 3d)     0.00006       1.92007
   550    H   15  dx2y2  Ryd( 4d)     0.00001       4.58574
   551    H   15  dz2    Ryd( 3d)     0.00009       1.63150
   552    H   15  dz2    Ryd( 4d)     0.00000       4.02600

 WARNING:  1 low occupancy (<1.9990e) core orbital  found on  C    6

 WARNING:  Population inversion found on atom  C    1
           Population inversion found on atom  N    2
           Population inversion found on atom  C    3
           Population inversion found on atom  N    4
           Population inversion found on atom  C    5
           Population inversion found on atom  C    6
           Population inversion found on atom  C    7
           Population inversion found on atom  O    8
           Population inversion found on atom  O    9
           Population inversion found on atom  H   10
           Population inversion found on atom  H   11
           Population inversion found on atom  H   12
           Population inversion found on atom  H   13
           Population inversion found on atom  H   14
           Population inversion found on atom  H   15


 Summary of Natural Population Analysis:                  
                                                          
                                       Natural Population 
                Natural  -----------------------------------------------
    Atom  No    Charge         Core      Valence    Rydberg      Total
 -----------------------------------------------------------------------
      C    1   -0.38588      1.99946     4.37303    0.01339     6.38588
      N    2   -0.32765      1.99912     5.29787    0.03066     7.32765
      C    3    0.16431      1.99921     3.80584    0.03064     5.83569
      N    4   -0.38264      1.99936     5.34296    0.04032     7.38264
      C    5   -0.01998      1.99905     3.99957    0.02135     6.01998
      C    6   -0.08161      1.99889     4.04414    0.03858     6.08161
      C    7    0.77388      1.99906     3.19612    0.03094     5.22612
      O    8   -0.59423      1.99979     6.56366    0.03077     8.59423
      O    9   -0.71761      1.99978     6.69376    0.02406     8.71761
      H   10    0.21863      0.00000     0.77921    0.00216     0.78137
      H   11    0.21367      0.00000     0.78430    0.00203     0.78633
      H   12    0.21398      0.00000     0.78398    0.00204     0.78602
      H   13    0.19339      0.00000     0.80289    0.00372     0.80661
      H   14    0.22832      0.00000     0.77007    0.00161     0.77168
      H   15    0.50342      0.00000     0.49262    0.00396     0.49658
 =======================================================================
   * Total *    0.00000     17.99371    47.73003    0.27625    66.00000

                                 Natural Population      
 --------------------------------------------------------
   Core                      17.99371 ( 99.9651% of  18)
   Valence                   47.73003 ( 99.4376% of  48)
   Natural Minimal Basis     65.72375 ( 99.5814% of  66)
   Natural Rydberg Basis      0.27625 (  0.4186% of  66)
 --------------------------------------------------------

    Atom  No          Natural Electron Configuration
 ----------------------------------------------------------------------------
      C    1      [core]2S( 1.09)2p( 3.28)4d( 0.01)
      N    2      [core]2S( 1.16)2p( 4.14)3d( 0.01)4p( 0.01)4f( 0.01)
      C    3      [core]2S( 0.85)2p( 2.95)3d( 0.01)4p( 0.01)
      N    4      [core]2S( 1.33)2p( 4.01)3d( 0.02)4p( 0.01)4d( 0.01)
      C    5      [core]2S( 0.91)2p( 3.09)4p( 0.01)
      C    6      [core]2S( 0.85)2p( 3.20)3d( 0.01)4p( 0.01)5p( 0.01)4f( 0.01)
      C    7      [core]2S( 0.79)2p( 2.41)4p( 0.01)5p( 0.01)
      O    8      [core]2S( 1.71)2p( 4.85)3d( 0.02)
      O    9      [core]2S( 1.67)2p( 5.02)3d( 0.02)
      H   10            1S( 0.78)
      H   11            1S( 0.78)
      H   12            1S( 0.78)
      H   13            1S( 0.80)
      H   14            1S( 0.77)
      H   15            1S( 0.49)


 NATURAL BOND ORBITAL ANALYSIS:

                       Occupancies       Lewis Structure    Low   High
           Occ.    -------------------  -----------------   occ   occ
  Cycle   Thresh.   Lewis   Non-Lewis     CR  BD  3C  LP    (L)   (NL)   Dev
 =============================================================================
   1(1)    1.90    62.81402   3.18598      9  17   0   7     8      5    0.52
   2(2)    1.90    62.81402   3.18598      9  17   0   7     8      5    0.52
   3(1)    1.80    64.18089   1.81911      9  18   0   6     1      3    0.40
   4(2)    1.80    64.18089   1.81911      9  18   0   6     1      3    0.40
   5(1)    1.70    64.15482   1.84518      9  18   0   6     1      3    0.52
   6(2)    1.70    64.43102   1.56898      9  18   0   6     1      3    0.33
   7(3)    1.70    63.98235   2.01765      9  18   0   6     1      3    0.52
   8(4)    1.70    64.43102   1.56898      9  18   0   6     1      3    0.33
   9(1)    1.60    64.43102   1.56898      9  18   0   6     1      3    0.33
  10(2)    1.60    63.98235   2.01765      9  18   0   6     1      3    0.52
  11(3)    1.60    64.43102   1.56898      9  18   0   6     1      3    0.33
  12(1)    1.50    63.36926   2.63074      9  18   0   6     0      5    0.73
  13(2)    1.50    63.36926   2.63074      9  18   0   6     0      5    0.73
  14(1)    1.70    64.43102   1.56898      9  18   0   6     1      3    0.33
 -----------------------------------------------------------------------------

 Structure accepted: RESONANCE keyword permits strongly delocalized structure

 WARNING:  1 low occupancy (<1.9990e) core orbital  found on  C    6

 --------------------------------------------------------
   Core                     17.99373 ( 99.965% of  18)
   Valence Lewis            46.43729 ( 96.744% of  48)
  ==================       ============================
   Total Lewis              64.43102 ( 97.623% of  66)
  -----------------------------------------------------
   Valence non-Lewis         1.43166 (  2.169% of  66)
   Rydberg non-Lewis         0.13732 (  0.208% of  66)
  ==================       ============================
   Total non-Lewis           1.56898 (  2.377% of  66)
 --------------------------------------------------------


       (Occupancy)   Bond orbital/ Coefficients/ Hybrids
 ---------------------------------------------------------------------------------
     1. (1.98675) BD ( 1) C   1 - N   2  
                ( 36.22%)   0.6019* C   1 s( 25.00%)p 3.00( 74.91%)d 0.00(  0.08%)
                                                  f 0.00(  0.01%)
                                            0.0001  0.4992 -0.0281  0.0012 -0.0004
                                           -0.7924 -0.0350  0.0056  0.0015 -0.3459
                                           -0.0136  0.0015  0.0021 -0.0004 -0.0001
                                            0.0000  0.0000  0.0174  0.0064  0.0027
                                            0.0001 -0.0001 -0.0001  0.0000  0.0000
                                            0.0000  0.0167  0.0046  0.0011 -0.0129
                                           -0.0051 -0.0023  0.0002  0.0002  0.0018
                                           -0.0049 -0.0028 -0.0045  0.0001  0.0001
                                            0.0001  0.0001  0.0010  0.0022 -0.0001
                                            0.0064
                ( 63.78%)   0.7986* N   2 s( 28.35%)p 2.52( 71.53%)d 0.00(  0.03%)
                                                  f 0.00(  0.10%)
                                           -0.0001  0.5324 -0.0066 -0.0017  0.0002
                                            0.7692  0.0106 -0.0025 -0.0021  0.3513
                                            0.0037 -0.0022  0.0004 -0.0003  0.0000
                                            0.0000  0.0000  0.0090  0.0033  0.0012
                                            0.0000  0.0000  0.0000  0.0000  0.0000
                                            0.0000  0.0094  0.0023  0.0009 -0.0088
                                           -0.0003 -0.0023  0.0001  0.0000 -0.0241
                                           -0.0045 -0.0117 -0.0017  0.0001  0.0000
                                            0.0001  0.0000  0.0050  0.0007  0.0151
                                            0.0027
     2. (1.99304) BD ( 1) C   1 - H  10  
                ( 60.95%)   0.7807* C   1 s( 25.31%)p 2.95( 74.55%)d 0.01(  0.13%)
                                                  f 0.00(  0.01%)
                                           -0.0001  0.5031  0.0036  0.0000  0.0005
                                           -0.0599  0.0137  0.0032 -0.0010  0.8608
                                           -0.0088  0.0000  0.0004 -0.0241  0.0002
                                            0.0000  0.0000 -0.0114  0.0002 -0.0014
                                            0.0002  0.0000  0.0000 -0.0019  0.0001
                                            0.0001 -0.0272  0.0002  0.0012 -0.0207
                                            0.0016  0.0007  0.0005 -0.0001  0.0025
                                            0.0017 -0.0058  0.0012  0.0004  0.0000
                                            0.0001  0.0001 -0.0018  0.0024 -0.0051
                                            0.0005
                ( 39.05%)   0.6249* H  10 s( 99.90%)p 0.00(  0.08%)d 0.00(  0.02%)
                                            0.9995  0.0003 -0.0003  0.0000 -0.0015
                                           -0.0006 -0.0012  0.0259 -0.0105  0.0012
                                           -0.0007  0.0003 -0.0001  0.0003  0.0014
                                            0.0000  0.0000  0.0007 -0.0001  0.0116
                                           -0.0012  0.0082 -0.0013
     3. (1.98951) BD ( 1) C   1 - H  11  
                ( 60.82%)   0.7799* C   1 s( 24.87%)p 3.02( 74.98%)d 0.01(  0.14%)
                                                  f 0.00(  0.01%)
                                           -0.0001  0.4986  0.0068 -0.0001 -0.0001
                                            0.4183  0.0054  0.0023 -0.0005 -0.2418
                                            0.0106  0.0014 -0.0009  0.7185 -0.0073
                                            0.0016  0.0005 -0.0063 -0.0002  0.0006
[...]
 ! D24   D(4,6,7,9)           -179.999          -DE/DX =    0.0                 !
 ! D25   D(5,6,7,8)           -179.9996         -DE/DX =    0.0                 !
 ! D26   D(5,6,7,9)              0.0004         -DE/DX =    0.0                 !
 ! D27   D(6,7,9,15)          -180.0            -DE/DX =    0.0                 !
 ! D28   D(8,7,9,15)             0.0            -DE/DX =    0.0                 !
 --------------------------------------------------------------------------------
 GradGradGradGradGradGradGradGradGradGradGradGradGradGradGradGradGradGrad


 ----------------------------------------------------------------------

 Electric dipole moment (input orientation):
 (Debye = 10**-18 statcoulomb cm , SI units = C m)
                  (au)            (Debye)         (10**-30 SI)
   Tot        0.255219D+01      0.648703D+01      0.216384D+02
   x         -0.217714D+00     -0.553373D+00     -0.184585D+01
   y         -0.671754D+00     -0.170743D+01     -0.569537D+01
   z         -0.245256D+01     -0.623378D+01     -0.207936D+02

 Dipole polarizability, Alpha (input orientation).
 (esu units = cm**3 , SI units = C**2 m**2 J**-1)
 Alpha(0;0):
               (au)            (10**-24 esu)      (10**-40 SI)
   iso        0.806256D+02      0.119475D+02      0.132934D+02
   aniso      0.509384D+02      0.754830D+01      0.839861D+01
   xx         0.515624D+02      0.764077D+01      0.850150D+01
   yx         0.431357D+01      0.639206D+00      0.711212D+00
   yy         0.826520D+02      0.122478D+02      0.136275D+02
   zx         0.168509D+01      0.249705D+00      0.277834D+00
   zy        -0.732011D+01     -0.108473D+01     -0.120692D+01
   zz         0.107662D+03      0.159539D+02      0.177511D+02

 ----------------------------------------------------------------------

 Dipole orientation:
     6         -3.20495530         -3.08676103          8.62304501
     7         -3.28815584         -2.49930023          5.94992470
     6         -3.05356875         -4.16797749          3.99682924
     7         -3.20665591         -3.06925831          1.80117409
     6         -3.61298656         -0.17664919          4.89594400
     6         -3.55779525         -0.56337689          2.33409719
     6         -3.82738904          1.35928242          0.35009629
     8         -3.77817481          0.99903841         -1.88257817
     8         -4.15285493          3.69105378          1.36035048
     1         -1.64770004         -2.09376570          9.52698842
     1         -4.97315623         -2.55639871          9.52876653
     1         -2.92360079         -5.10922200          8.84044601
     1         -2.77498701         -6.15937111          4.32811874
     1         -3.84934581          1.51128703          6.00298032
     1         -4.31501669          4.84507458         -0.04399636

 Electric dipole moment (dipole orientation):
 (Debye = 10**-18 statcoulomb cm , SI units = C m)
                  (au)            (Debye)         (10**-30 SI)
   Tot        0.255219D+01      0.648703D+01      0.216384D+02
   x          0.000000D+00      0.000000D+00      0.000000D+00
   y          0.000000D+00      0.000000D+00      0.000000D+00
   z          0.255219D+01      0.648703D+01      0.216384D+02

 Dipole polarizability, Alpha (dipole orientation).
 (esu units = cm**3 , SI units = C**2 m**2 J**-1)
 Alpha(0;0):
               (au)            (10**-24 esu)      (10**-40 SI)
   iso        0.806256D+02      0.119475D+02      0.132934D+02
   aniso      0.509384D+02      0.754830D+01      0.839861D+01
   xx         0.515756D+02      0.764272D+01      0.850367D+01
   yx        -0.520259D+01     -0.770944D+00     -0.857791D+00
   yy         0.880127D+02      0.130421D+02      0.145113D+02
   zx         0.171957D+01      0.254814D+00      0.283519D+00
   zy        -0.122886D+02     -0.182099D+01     -0.202612D+01
   zz         0.102288D+03      0.151576D+02      0.168651D+02

 ----------------------------------------------------------------------
 Unable to Open any file for archive entry.
 1\1\GINC-AE19\Freq\RM062X\Aug-CC-pVTZ\C5H6N2O2\DHUANG\04-Mar-2025\0\\#
 N Geom=AllCheck Guess=TCheck SCRF=Check GenChk RM062X/Aug-CC-pVTZ Freq
 \\15\\0,1\C,-2.0976532367,0.3941117768,-4.6702353957\N,-2.0172903282,0
 .4670478316,-3.2253252663\C,-1.8155582535,1.5894894666,-2.4751480698\N
 ,-1.7904961579,1.3353578933,-1.1986734202\C,-2.1268945345,-0.569854388
 4,-2.3511875535\C,-1.9844952084,-0.0159494883,-1.1047971223\C,-2.02541
 90587,-0.7194617353,0.1840675282\O,-1.9008697141,-0.2248881853,1.26702
 62781\O,-2.2284849668,-2.048528693,0.0098026482\H,-1.3114357818,-0.248
 1340131,-5.0618963644\H,-3.0675445518,0.0079331964,-4.9771223113\H,-1.
 9713871878,1.3945570711,-5.0751829374\H,-1.6957068801,2.5582294959,-2.
 9335576927\H,-2.291252082,-1.5842749811,-2.6683656081\H,-2.2435926777,
 -2.4410515672,0.891994617\\Version=ES64L-G16RevC.01\State=1-A\HF=-454.
 1076929\RMSD=2.562e-09\RMSF=3.089e-05\ZeroPoint=0.1152571\Thermal=0.12
 3407\ETot=-453.9842859\HTot=-453.9833418\GTot=-454.0264679\Dipole=-0.2
 177137,-0.6717543,-2.4525568\DipoleDeriv=0.2232625,-0.0110016,0.027524
 3,-0.0112245,0.1376534,0.0291356,0.0278032,0.0333128,0.6983735,-0.1455
 81,-0.0151401,0.001966,0.0000493,-0.2342205,0.2729426,-0.0429314,-0.03
 73163,-0.9117284,0.0156753,0.0471489,0.0494622,0.0489226,0.265482,0.22
 37435,0.0440937,0.1888058,0.3398296,-0.2692057,-0.0137249,-0.0341551,-
 0.0190828,-0.3439271,-0.1527881,-0.01839,-0.0452792,-0.507165,-0.06410
 67,-0.001786,-0.018731,-0.0122938,-0.0403934,-0.318207,0.012856,-0.102
 9844,0.5084012,-0.0413356,0.0201418,0.0064757,0.0241964,0.0454598,0.22
 09994,-0.0054068,0.1392511,-0.5766105,0.3715754,0.2038018,0.0467784,0.
 1921672,1.7441983,-0.2756653,0.0817894,-0.0369972,2.1441608,-0.3825019
 ,-0.0560672,-0.0644597,-0.0507825,-0.6908832,-0.0829794,-0.0806546,-0.
 1932862,-1.4551968,-0.3925009,-0.1467874,0.018527,-0.1427688,-1.404227
 2,0.1716466,0.006711,0.0912088,-0.5086974,-0.0025392,0.0672395,0.05715
 13,0.0627208,0.0279075,-0.0689225,-0.0109568,-0.0005662,-0.0492579,-0.
 0418313,-0.0473354,-0.0758061,-0.0483631,0.0616725,-0.0438731,0.008938
 1,0.0023379,-0.0434496,0.0849163,-0.020256,0.0071073,-0.0159299,-0.045
 4198,0.0711622,-0.0059286,-0.0180603,0.0193378,0.1463056,-0.0123061,0.
 0005919,-0.0128735,0.0452462,0.0459457,0.0021971,0.0564656,0.0234514,0
 .1710254,-0.0180558,-0.0066086,-0.0169506,0.0637015,-0.015325,-0.01012
 83,-0.0390235,0.0841977,0.3268418,0.0041285,-0.0158236,0.002213,0.3677
 5,-0.0778152,-0.0099921,-0.0378685,0.2343536\Polar=51.5624421,4.313574
 6,82.6520346,1.6850926,-7.320112,107.662271\Quadrupole=-2.6247069,0.87
 19937,1.7527132,0.1728589,-0.8103767,-6.9764767\PG=C01 [X(C5H6N2O2)]\N
 Imag=0\\0.58462392,0.00449652,0.61631147,-0.00462100,-0.00436529,0.501
 23784,-0.06219584,-0.00761920,-0.01037394,0.15598243,-0.00755985,-0.10
 904593,-0.00906791,0.07299315,0.64107326,-0.01050435,-0.01025010,-0.24
 792840,0.03345272,-0.00195093,0.83824604,-0.00797576,0.00197975,-0.001
 43947,-0.07158595,-0.03045597,-0.01659049,0.16157008,0.00267156,0.0117
 2336,-0.00515302,-0.03143057,-0.25167163,-0.08568942,0.08957082,0.8128
 1743,-0.00360665,-0.01967927,-0.02226421,-0.01355232,-0.06528339,-0.14
 820514,0.00470656,-0.16533691,0.74143212,0.00789326,-0.00193921,-0.000
 53215,0.02166798,-0.00749994,-0.00484802,-0.08090776,-0.00201876,-0.00
 619952,0.11759801,-0.00168887,-0.00224861,-0.00274678,-0.00387873,-0.0
 0609196,0.00732357,-0.00158114,-0.11521604,0.07250897,0.05248286,0.477
 25529,-0.00133564,-0.00822900,0.00550498,-0.01564080,-0.06599406,-0.09
 804950,-0.00752053,0.06353343,-0.42518128,0.02076462,-0.03382339,0.635
 48379,-0.00290902,0.00338502,-0.00064299,-0.07009927,-0.02140046,0.009
 77049,0.01427989,-0.01532506,-0.00419186,0.01628949,-0.01518516,-0.000
 75991,0.14972248,0.00213148,0.01053443,0.00172470,-0.02029559,-0.24218
 225,0.11014988,-0.01816510,-0.09901284,-0.02364575,-0.01174770,-0.0617
 7425,0.00124133,0.11076726,0.84770526,0.00314051,0.02769172,-0.0219976
 6,0.00638293,0.08681582,-0.19875439,0.00439931,0.03470116,0.00242602,-
 0.01107106,-0.06881893,-0.00097660,0.04284262,0.11390328,0.66630197,0.
 00229147,-0.00146515,0.00041694,0.01362630,0.00017585,-0.00694201,0.00
 992567,-0.00765456,0.01177056,-0.07893974,-0.03023457,-0.00077270,-0.0
 7589048,-0.01526254,-0.02732477,0.16125670,-0.00148905,-0.00851456,0.0
 0225027,-0.00379641,-0.00743650,-0.01266021,-0.00419489,-0.05137660,0.
 10005960,-0.02962267,-0.27590131,-0.00045652,-0.01434921,-0.13661623,-
 0.10053824,0.06844234,0.63097884,0.00055081,0.00311926,0.00421884,0.00
 487997,0.06788415,-0.08993326,0.00139767,0.02946910,-0.04942978,-0.002
 57955,-0.01273466,-0.08924473,-0.03003752,-0.11897625,-0.32901006,0.02
 525544,-0.04638814,0.80819572,0.00200630,-0.00009710,0.00013592,0.0064
 1440,-0.00067169,-0.00226063,0.00590873,-0.00252380,-0.00014313,-0.008
 07902,-0.00098358,0.00467138,-0.00345357,0.00294757,-0.00153642,-0.077
 24370,-0.00418014,0.00426304,0.22909469,0.00004985,0.00140320,0.002847
 34,-0.00031648,0.00917478,-0.01401417,-0.00278257,-0.01088721,-0.00529
 534,-0.00032432,-0.02087478,0.03167214,0.00216457,0.01114653,-0.000703
 36,-0.00382758,-0.12506238,0.06737737,0.06785037,0.63780972,-0.0003140
 5,-0.00019793,-0.00378763,-0.00332931,-0.02133644,0.00256295,0.0006260
 4,-0.00008195,0.01930651,0.00266523,0.01803697,-0.00784564,0.00083108,
 0.01528450,-0.03298114,0.00321602,0.06038269,-0.19327595,0.05642228,0.
 12705080,1.00187987,-0.00067103,0.00013494,0.00007276,-0.00153640,0.00
 086675,0.00033792,-0.00047723,0.00018429,-0.00076071,0.00040548,-0.000
 42809,0.00064013,0.00336451,-0.00052333,0.00056511,0.02142667,-0.00156
 615,-0.00391778,-0.08807696,-0.03079851,-0.06311998,0.04461501,0.00006
 679,-0.00011075,-0.00039415,0.00065215,0.00154332,0.00362127,0.0001493
 5,0.00148899,-0.00280998,-0.00003894,-0.00056163,0.00225505,-0.0006428
 2,-0.00193350,0.00295542,-0.00061941,0.01694289,0.00205541,-0.03123593
 ,-0.21562587,-0.23790960,0.04671583,0.25147600,0.00028200,0.00103279,0
 .00199906,0.00097879,0.00803382,-0.00572638,-0.00065942,-0.00210343,-0
 .00762874,-0.00053666,-0.00578759,0.00686555,0.00094406,0.00551462,0.0
 0604909,-0.00681830,-0.01775242,-0.06557929,-0.06176988,-0.22869096,-0
 .66822744,0.07950805,0.30870141,0.74658359,-0.00022316,0.00000527,-0.0
 0022109,-0.00041015,-0.00071644,0.00066128,-0.00049103,0.00021088,0.00
 049370,0.00234904,0.00016477,0.00014160,0.00066476,-0.00020679,-0.0007
 9248,0.01122952,-0.00563631,0.00128550,-0.06963023,-0.02721446,-0.0053
 5916,0.02615790,-0.01689659,-0.01121678,0.04541680,-0.00008971,-0.0002
 1337,-0.00182373,-0.00054467,-0.00550736,0.00436756,0.00024618,-0.0000
 3931,0.00354601,0.00025198,0.00286848,0.00350227,-0.00049886,-0.001135
 70,-0.00462527,-0.00689458,-0.03883871,0.01144038,-0.02870475,-0.25604
 795,-0.01609675,-0.01638753,-0.06156050,-0.06442795,0.05802270,0.47322
 727,0.00006296,0.00011422,0.00073933,0.00014515,0.00085087,0.00007074,
 0.00038752,0.00281212,-0.00109461,-0.00011190,0.00178881,-0.00534922,0
 .00009028,0.00139983,-0.00162680,0.00511179,0.03754082,0.00391469,-0.0
 0082758,0.01483961,-0.12774238,-0.01275457,-0.07492328,-0.00783291,0.0
 0803382,-0.12369843,0.58065232,-0.19739586,0.11945564,0.06771424,0.007
 19927,-0.00468289,-0.00047245,0.00010420,-0.00057497,-0.00137800,-0.00
 052561,-0.00056236,-0.00002902,0.00062251,0.00038309,-0.00013660,0.000
 01876,0.00018357,0.00047999,-0.00001021,0.00021344,-0.00010997,0.00000
 410,-0.00005653,0.00004017,-0.00000849,-0.00012015,0.00000341,0.205718
 49,0.11752438,-0.14626167,-0.05457366,-0.00156664,0.00044199,-0.001404
 85,0.00032662,0.00005914,-0.00086610,-0.00029083,0.00018707,0.00041912
 ,-0.00037987,0.00062824,0.00044248,-0.00016842,0.00021076,-0.00047736,
 0.00016263,-0.00019517,0.00035190,-0.00004089,0.00002183,-0.00017534,-
 0.00000459,0.00012476,-0.00007137,-0.12893140,0.15169822,0.06270140,-0
 .04927623,-0.07565211,0.02267884,-0.02540463,-0.02639155,0.00397317,0.
 00438800,0.00070323,-0.00159754,0.00114492,-0.00347989,0.00016109,-0.0
 0199701,0.00355473,-0.00071392,-0.00226000,-0.00150054,-0.00034677,-0.
 00057365,0.00049967,0.00010880,0.00014944,-0.00027928,0.00006519,0.000
 37755,-0.00008383,-0.07233549,0.06157735,0.09363650,-0.27109874,-0.087
 54192,-0.06320834,0.00532458,0.00066118,-0.00293958,0.00003653,0.00102
 953,0.00115183,-0.00007053,0.00074644,-0.00016245,0.00060339,-0.000562
 63,0.00052842,-0.00003685,-0.00033962,-0.00074047,-0.00008814,-0.00029
 692,0.00025805,0.00001538,0.00007111,-0.00011570,0.00003785,0.00018214
 ,-0.00003270,-0.01971944,-0.00932773,-0.00498580,0.28675280,-0.0860441
 2,-0.08482211,-0.02514024,-0.00049618,-0.00046284,-0.00107806,-0.00043
 986,-0.00006043,-0.00120149,0.00042866,-0.00012135,0.00040168,0.000421
 68,0.00065189,0.00030412,0.00019485,0.00023575,-0.00031427,-0.00015562
 ,-0.00007151,0.00031353,0.00002396,-0.00000660,-0.00015549,0.00002402,
 0.00007532,-0.00006794,0.01829965,0.00849783,0.00578883,0.09524361,0.0
 8460108,-0.05685582,-0.02132663,-0.06339910,-0.03202855,-0.01769207,-0
 .02359975,-0.00247915,0.00526355,0.00087583,0.00153591,0.00060633,-0.0
 0362552,-0.00043524,-0.00185808,0.00354588,-0.00010641,-0.00231660,-0.
 00146359,0.00022069,-0.00063021,0.00045264,-0.00008877,0.00017214,-0.0
 0026136,0.00003483,0.00036632,-0.00008046,0.00892593,0.00509339,0.0039
 2112,0.06996140,0.02943941,0.07970761,-0.05189498,-0.03116740,0.012254
 34,-0.00149458,0.00271188,-0.00112347,0.00057324,0.00015777,-0.0002995
 3,-0.00047235,0.00011299,0.00013948,0.00062247,-0.00024509,-0.00031141
 ,0.00057510,-0.00004103,-0.00018308,-0.00003256,-0.00001095,-0.0000268
 6,-0.00000911,0.00000454,-0.00000640,0.00000663,0.00000117,0.00000440,
 0.00413009,0.02206757,-0.00993329,-0.00144782,-0.02696655,0.01147489,0
 .04945761,-0.03055148,-0.28923706,0.09560208,0.00080367,0.00402472,-0.
 00102245,-0.00007018,0.00089220,-0.00240760,0.00014865,0.00025782,0.00
 077693,-0.00006223,0.00052410,-0.00085058,-0.00013278,-0.00012244,-0.0
 0056666,0.00000948,0.00011123,-0.00023538,0.00000568,-0.00000481,0.000
 10499,-0.00000327,-0.00003093,0.00004539,-0.00350156,-0.01542455,0.005
 94361,-0.00007691,-0.00865785,0.00269777,0.03334789,0.30722705,0.01038
 451,0.08278761,-0.08277073,0.00465211,0.03855032,-0.02204309,0.0003807
 8,0.00222441,0.00167629,0.00003550,0.00005600,0.00004580,-0.00086784,-
 0.00459854,-0.00324231,0.00009658,0.00134110,-0.00148760,-0.00008896,-
 0.00065844,0.00013256,-0.00001014,0.00008000,-0.00046376,0.00001817,0.
 00013944,-0.00004147,-0.00298311,-0.01030096,0.00515787,0.00053544,-0.
 00841096,0.00396799,-0.01202331,-0.10038647,0.09926558,-0.00161836,0.0
 0020396,0.00042358,-0.00122186,-0.00375767,0.00220233,-0.03409202,-0.0
 3376522,0.01208399,-0.00406355,0.00226630,0.00022811,0.00269622,-0.000
 69851,-0.00100161,0.00761380,-0.00072476,-0.00056611,0.00153268,-0.000
 15080,-0.00000864,-0.00009565,0.00000578,0.00000590,-0.00034154,0.0000
 8095,-0.00000887,0.00008838,0.00040816,-0.00010257,-0.00000997,-0.0003
 5624,0.00002856,0.00024971,0.00002255,-0.00015156,0.02769418,0.0003219
 8,0.00002166,0.00151816,-0.00213882,-0.01928985,0.01185037,-0.03404535
 ,-0.29738616,0.10776645,0.00105497,0.00156240,0.00362880,-0.00079515,-
 0.00103642,-0.00459998,-0.00075899,0.00245959,0.00036277,-0.00018725,0
 .00025987,0.00006018,0.00000827,-0.00006783,0.00008433,0.00005076,-0.0
 0001785,0.00003205,-0.00002113,0.00011391,-0.00021722,0.00003695,0.000
 22074,-0.00023900,-0.00004421,0.00024797,-0.00088281,0.03675678,0.3131
 8103,0.00007181,-0.00087944,0.00245591,-0.00262132,-0.02100771,0.00868
 754,0.01288047,0.11320248,-0.10624018,0.00387973,0.02848446,-0.0106406
 2,-0.00070986,-0.00262183,-0.00378703,-0.00046427,0.00105007,-0.004930
 94,0.00009827,0.00080175,0.00117054,-0.00000109,0.00003387,-0.00022497
 ,0.00008177,0.00064612,-0.00062675,0.00000725,0.00011498,-0.00003691,0
 .00002398,0.00015121,-0.00004394,0.00004506,0.00046076,-0.00019590,-0.
 01321895,-0.12011878,0.11332835,-0.00085796,0.00016371,-0.00001233,-0.
 00210730,-0.00067732,-0.00067864,0.00340073,-0.00048650,-0.00003872,0.
 00573984,-0.00096721,-0.00055525,-0.03592995,-0.04862297,-0.01570110,0
 .00078573,-0.00127580,0.00063101,-0.00194616,0.00014929,-0.00002341,0.
 00018853,0.00001543,-0.00000481,-0.00011501,-0.00002371,0.00012576,-0.
 00022478,0.00021960,0.00032419,-0.00029229,-0.00017416,-0.00017837,-0.
 00026473,0.00005891,0.00002677,0.00177938,-0.00027396,-0.00010360,0.03
 001441,0.00014125,0.00039579,-0.00094956,-0.00237696,-0.01520803,-0.00
 887304,-0.00046384,-0.00072703,0.00311938,-0.00071640,0.00122606,-0.00
 060588,-0.04821888,-0.32772545,-0.08664222,-0.00022927,-0.00130086,0.0
 0203433,0.00021903,-0.00015007,-0.00096579,-0.00002745,0.00000283,-0.0
 0001499,-0.00004904,-0.00076324,0.00093488,-0.00009569,-0.00008460,0.0
 0039036,0.00019228,-0.00006723,0.00045162,0.00007116,0.00017778,0.0000
 9492,-0.00033250,-0.00028974,-0.00044754,0.05182731,0.34432427,0.00005
 225,-0.00052497,0.00174935,0.00443185,0.02591154,0.01084499,-0.0001076
 0,0.00268060,-0.00677600,-0.00131149,-0.00576961,-0.00355243,-0.016954
 54,-0.09509869,-0.08935685,-0.00247161,-0.01914862,0.00785457,-0.00023
 717,-0.00243499,0.00049726,0.00012295,0.00086359,0.00010940,0.00020317
 ,0.00145939,-0.00034025,0.00027481,-0.00014087,-0.00006063,-0.00027994
 ,-0.00004088,-0.00000920,-0.00000988,-0.00015391,-0.00000824,0.0000738
 4,0.00075365,0.00106040,0.01616347,0.09138207,0.07793551,0.00002576,0.
 00000517,0.00003354,0.00043638,0.00001343,-0.00006510,-0.00026934,-0.0
 0004542,-0.00003621,0.00111546,-0.00026366,0.00019099,-0.00058344,0.00
 010084,0.00001656,0.00336105,-0.00140988,-0.00071891,0.00360375,-0.004
 70491,0.00827268,-0.00531118,0.00180925,-0.00063101,-0.01464289,-0.005
 52116,-0.00022947,-0.00000140,0.00000141,0.00000270,-0.00000673,-0.000
 00371,-0.00000990,0.00000129,0.00000157,-0.00000495,-0.00021139,0.0000
 3515,0.00003075,-0.00017043,0.00005898,0.00004988,0.01265312,0.0000192
 6,0.00006418,0.00027180,0.00001126,0.00063826,-0.00036941,-0.00007383,
 -0.00060384,-0.00047457,-0.00016834,-0.00056722,0.00167811,0.00011919,
 0.00022618,-0.00003542,-0.00156520,-0.00565824,-0.00428545,-0.00244923
 ,-0.03099038,0.05534328,0.00183223,0.00839564,-0.00436378,-0.00775092,
 -0.11214089,0.13840241,0.00001129,-0.00001776,-0.00003133,-0.00001750,
 -0.00001268,-0.00002795,0.00000026,0.00001477,-0.00003563,0.00004123,0
 .00002069,0.00012961,0.00006737,0.00018953,0.00026170,0.00992294,0.140
 44178,-0.00000874,-0.00001674,-0.00010546,-0.00005612,-0.00030936,0.00
 021920,0.00004513,0.00008988,0.00039994,-0.00009308,-0.00026909,0.0000
 4530,-0.00003984,-0.00042199,-0.00014486,-0.00025335,-0.00110380,0.001
 67193,0.00139895,0.00841210,0.00735818,-0.00070267,-0.00485059,-0.0053
 8257,0.00657049,0.18482707,-0.44055841,-0.00000117,0.00001129,0.000011
 63,0.00000585,0.00001055,0.00001186,-0.00000096,-0.00000846,0.00000703
 ,0.00001200,0.00000103,0.00002451,0.00002503,0.00009147,0.00005213,-0.
 00690153,-0.18646337,0.43638959\\0.00001601,0.00000258,-0.00001803,-0.
 00001198,0.00010710,-0.00000824,-0.00000545,-0.00005315,-0.00009132,0.
 00001223,-0.00000749,0.00004487,-0.00002494,-0.00006101,0.00008521,0.0
 0002227,0.00001524,-0.00005372,-0.00000705,-0.00001601,0.00002052,-0.0
 0000733,-0.00000597,-0.00001051,0.00000422,0.00001459,0.00000736,-0.00
 000459,-0.00000121,0.00001387,0.00000642,0.00000293,0.00001043,-0.0000
 0451,-0.00000664,-0.00000551,-0.00000613,0.00000016,0.00001023,0.00001
 065,0.00000862,-0.00000617,0.00000017,0.00000027,0.00000100\\\@
 The archive entry for this job was punched.


 HE THAT RISETH LATE MUST TROT ALL DAY.

                  -- BENJAMIN FRANKLIN
 Job cpu time:       0 days  9 hours  5 minutes 45.5 seconds.
 Elapsed time:       0 days  0 hours 27 minutes 17.9 seconds.
 File lengths (MBytes):  RWF=    335 Int=      0 D2E=      0 Chk=     25 Scr=      1
 Normal termination of Gaussian 16 at Tue Mar  4 19:42:37 2025.
