 Entering Gaussian System, Link 0=g16
 Initial command:
 /usr/local/gaussian16c01/g16/l1.exe "/scr/dhuang/Gau-38684.inp" -scrdir="/scr/dhuang/"
 Entering Link 1 = /usr/local/gaussian16c01/g16/l1.exe PID=     38685.
  
 Copyright (c) 1988-2019, Gaussian, Inc.  All Rights Reserved.
  
 This is part of the Gaussian(R) 16 program.  It is based on
 the Gaussian(R) 09 system (copyright 2009, Gaussian, Inc.),
 the Gaussian(R) 03 system (copyright 2003, Gaussian, Inc.),
 the Gaussian(R) 98 system (copyright 1998, Gaussian, Inc.),
 the Gaussian(R) 94 system (copyright 1995, Gaussian, Inc.),
 the Gaussian 92(TM) system (copyright 1992, Gaussian, Inc.),
 the Gaussian 90(TM) system (copyright 1990, Gaussian, Inc.),
 the Gaussian 88(TM) system (copyright 1988, Gaussian, Inc.),
 the Gaussian 86(TM) system (copyright 1986, Carnegie Mellon
 University), and the Gaussian 82(TM) system (copyright 1983,
 Carnegie Mellon University). Gaussian is a federally registered
 trademark of Gaussian, Inc.
  
 This software contains proprietary and confidential information,
 including trade secrets, belonging to Gaussian, Inc.
  
 This software is provided under written license and may be
 used, copied, transmitted, or stored only in accord with that
 written license.
  
 The following legend is applicable only to US Government
 contracts under FAR:
  
                    RESTRICTED RIGHTS LEGEND
  
 Use, reproduction and disclosure by the US Government is
 subject to restrictions as set forth in subparagraphs (a)
 and (c) of the Commercial Computer Software - Restricted
 Rights clause in FAR 52.227-19.
  
 Gaussian, Inc.
 340 Quinnipiac St., Bldg. 40, Wallingford CT 06492
  
  
 ---------------------------------------------------------------
 Warning -- This program may not be used in any manner that
 competes with the business of Gaussian, Inc. or will provide
 assistance to any competitor of Gaussian, Inc.  The licensee
 of this program is prohibited from giving any competitor of
 Gaussian, Inc. access to this program.  By using this program,
 the user acknowledges that Gaussian, Inc. is engaged in the
 business of creating and licensing software in the field of
 computational chemistry and represents and warrants to the
 licensee that it is not a competitor of Gaussian, Inc. and that
 it will not use this program in any manner prohibited above.
 ---------------------------------------------------------------
  

 Cite this work as:
 Gaussian 16, Revision C.01,
 M. J. Frisch, G. W. Trucks, H. B. Schlegel, G. E. Scuseria, 
 M. A. Robb, J. R. Cheeseman, G. Scalmani, V. Barone, 
 G. A. Petersson, H. Nakatsuji, X. Li, M. Caricato, A. V. Marenich, 
 J. Bloino, B. G. Janesko, R. Gomperts, B. Mennucci, H. P. Hratchian, 
 J. V. Ortiz, A. F. Izmaylov, J. L. Sonnenberg, D. Williams-Young, 
 F. Ding, F. Lipparini, F. Egidi, J. Goings, B. Peng, A. Petrone, 
 T. Henderson, D. Ranasinghe, V. G. Zakrzewski, J. Gao, N. Rega, 
 G. Zheng, W. Liang, M. Hada, M. Ehara, K. Toyota, R. Fukuda, 
 J. Hasegawa, M. Ishida, T. Nakajima, Y. Honda, O. Kitao, H. Nakai, 
 T. Vreven, K. Throssell, J. A. Montgomery, Jr., J. E. Peralta, 
 F. Ogliaro, M. J. Bearpark, J. J. Heyd, E. N. Brothers, K. N. Kudin, 
 V. N. Staroverov, T. A. Keith, R. Kobayashi, J. Normand, 
 K. Raghavachari, A. P. Rendell, J. C. Burant, S. S. Iyengar, 
 J. Tomasi, M. Cossi, J. M. Millam, M. Klene, C. Adamo, R. Cammi, 
 J. W. Ochterski, R. L. Martin, K. Morokuma, O. Farkas, 
 J. B. Foresman, and D. J. Fox, Gaussian, Inc., Wallingford CT, 2019.
 
 ******************************************
 Gaussian 16:  ES64L-G16RevC.01  3-Jul-2019
                 4-Mar-2025 
 ******************************************
 %nprocshared=20
 Will use up to   20 processors via shared memory.
 %mem=10000MW
 %chk=16.chk
 ------------------------------------
 # opt freq m062x/aug-cc-pvtz pop=nbo
 ------------------------------------
 1/18=20,19=15,26=3,38=1/1,3;
 2/9=110,12=2,17=6,18=5,40=1/2;
 3/5=16,6=1,7=10,11=2,25=1,30=1,71=1,74=-55/1,2,3;
 4//1;
 5/5=2,38=5/2;
 6/7=2,8=2,9=2,10=2,28=1,40=1/1,7;
 7//1,2,3,16;
 1/18=20,19=15,26=3/3(2);
 2/9=110/2;
 99//99;
 2/9=110/2;
 3/5=16,6=1,7=10,11=2,25=1,30=1,71=1,74=-55/1,2,3;
 4/5=5,16=3,69=1/1;
 5/5=2,38=5/2;
 7//1,2,3,16;
 1/18=20,19=15,26=3/3(-5);
 2/9=110/2;
 6/7=2,8=2,9=2,10=2,19=2,28=1,40=1/1,7;
 99/9=1/99;
 --
 16
 --
 Symbolic Z-matrix:
 Charge =  0 Multiplicity = 1
 C                    -1.17946   1.82703  -0.46981 
 N                    -1.06083   0.75385  -1.46634 
 C                    -1.02872  -0.48928  -1.21565 
 C                    -0.91441  -1.01773  -2.4482 
 N                    -0.88435  -0.11647  -3.34026 
 C                    -0.9765    0.97675  -2.70999 
 C                    -1.0874   -1.1913   -0.0508 
 O                    -1.19126  -0.64008   1.02905 
 O                    -1.0296   -2.5486   -0.0797 
 H                    -0.31759   1.80655   0.23523 
 H                    -1.18319   2.8348   -0.9431 
 H                    -2.1342    1.73431   0.09627 
 H                    -0.85088  -2.08172  -2.71266 
 H                    -0.98369   1.97587  -3.1596 
 H                    -1.08223  -2.91003   0.81859 
 

 GradGradGradGradGradGradGradGradGradGradGradGradGradGradGradGradGradGrad
 Berny optimization.
 Initialization pass.
                           ----------------------------
                           !    Initial Parameters    !
                           ! (Angstroms and Degrees)  !
 --------------------------                            --------------------------
 ! Name  Definition              Value          Derivative Info.                !
 --------------------------------------------------------------------------------
 ! R1    R(1,2)                  1.4693         estimate D2E/DX2                !
 ! R2    R(1,10)                 1.1137         estimate D2E/DX2                !
 ! R3    R(1,11)                 1.1134         estimate D2E/DX2                !
 ! R4    R(1,12)                 1.1138         estimate D2E/DX2                !
 ! R5    R(2,3)                  1.2686         estimate D2E/DX2                !
 ! R6    R(2,6)                  1.2663         estimate D2E/DX2                !
 ! R7    R(3,4)                  1.3459         estimate D2E/DX2                !
 ! R8    R(3,7)                  1.3613         estimate D2E/DX2                !
 ! R9    R(4,5)                  1.2684         estimate D2E/DX2                !
 ! R10   R(4,13)                 1.0982         estimate D2E/DX2                !
 ! R11   R(5,6)                  1.2653         estimate D2E/DX2                !
 ! R12   R(6,14)                 1.0957         estimate D2E/DX2                !
 ! R13   R(7,8)                  1.2168         estimate D2E/DX2                !
 ! R14   R(7,9)                  1.3588         estimate D2E/DX2                !
 ! R15   R(9,15)                 0.9697         estimate D2E/DX2                !
 ! A1    A(2,1,10)             110.6978         estimate D2E/DX2                !
 ! A2    A(2,1,11)             111.9051         estimate D2E/DX2                !
 ! A3    A(2,1,12)             110.6774         estimate D2E/DX2                !
 ! A4    A(10,1,11)            106.7592         estimate D2E/DX2                !
 ! A5    A(10,1,12)            109.8823         estimate D2E/DX2                !
 ! A6    A(11,1,12)            106.7703         estimate D2E/DX2                !
 ! A7    A(1,2,3)              125.7161         estimate D2E/DX2                !
 ! A8    A(1,2,6)              122.8826         estimate D2E/DX2                !
 ! A9    A(3,2,6)              111.4014         estimate D2E/DX2                !
 ! A10   A(2,3,4)              101.8844         estimate D2E/DX2                !
 ! A11   A(2,3,7)              132.3277         estimate D2E/DX2                !
 ! A12   A(4,3,7)              125.7879         estimate D2E/DX2                !
 ! A13   A(3,4,5)              111.5353         estimate D2E/DX2                !
 ! A14   A(3,4,13)             127.2897         estimate D2E/DX2                !
 ! A15   A(5,4,13)             121.175          estimate D2E/DX2                !
 ! A16   A(4,5,6)              105.1803         estimate D2E/DX2                !
 ! A17   A(2,6,5)              109.9986         estimate D2E/DX2                !
 ! A18   A(2,6,14)             124.271          estimate D2E/DX2                !
 ! A19   A(5,6,14)             125.7303         estimate D2E/DX2                !
 ! A20   A(3,7,8)              121.9665         estimate D2E/DX2                !
 ! A21   A(3,7,9)              119.6753         estimate D2E/DX2                !
 ! A22   A(8,7,9)              118.3582         estimate D2E/DX2                !
 ! A23   A(7,9,15)             110.5048         estimate D2E/DX2                !
 ! D1    D(10,1,2,3)            60.9286         estimate D2E/DX2                !
 ! D2    D(10,1,2,6)          -119.0579         estimate D2E/DX2                !
 ! D3    D(11,1,2,3)           179.8856         estimate D2E/DX2                !
 ! D4    D(11,1,2,6)            -0.1008         estimate D2E/DX2                !
 ! D5    D(12,1,2,3)           -61.1569         estimate D2E/DX2                !
 ! D6    D(12,1,2,6)           118.8567         estimate D2E/DX2                !
 ! D7    D(1,2,3,4)           -179.9873         estimate D2E/DX2                !
 ! D8    D(1,2,3,7)              0.007          estimate D2E/DX2                !
 ! D9    D(6,2,3,4)              0.0005         estimate D2E/DX2                !
 ! D10   D(6,2,3,7)            179.9948         estimate D2E/DX2                !
 ! D11   D(1,2,6,5)            179.9894         estimate D2E/DX2                !
 ! D12   D(1,2,6,14)            -0.0138         estimate D2E/DX2                !
 ! D13   D(3,2,6,5)              0.0012         estimate D2E/DX2                !
 ! D14   D(3,2,6,14)           179.9981         estimate D2E/DX2                !
 ! D15   D(2,3,4,5)             -0.0021         estimate D2E/DX2                !
 ! D16   D(2,3,4,13)           179.9974         estimate D2E/DX2                !
 ! D17   D(7,3,4,5)           -179.9969         estimate D2E/DX2                !
 ! D18   D(7,3,4,13)             0.0026         estimate D2E/DX2                !
 ! D19   D(2,3,7,8)              0.0116         estimate D2E/DX2                !
 ! D20   D(2,3,7,9)           -179.999          estimate D2E/DX2                !
 ! D21   D(4,3,7,8)           -179.9953         estimate D2E/DX2                !
 ! D22   D(4,3,7,9)             -0.0059         estimate D2E/DX2                !
 ! D23   D(3,4,5,6)              0.0028         estimate D2E/DX2                !
 ! D24   D(13,4,5,6)          -179.9967         estimate D2E/DX2                !
 ! D25   D(4,5,6,2)             -0.0025         estimate D2E/DX2                !
 ! D26   D(4,5,6,14)          -179.9992         estimate D2E/DX2                !
 ! D27   D(3,7,9,15)           180.0            estimate D2E/DX2                !
 ! D28   D(8,7,9,15)            -0.0102         estimate D2E/DX2                !
 --------------------------------------------------------------------------------
 Trust Radius=3.00D-01 FncErr=1.00D-07 GrdErr=1.00D-06 EigMax=2.50D+02 EigMin=1.00D-04
 Number of steps in this run=     76 maximum allowed number of steps=    100.
 GradGradGradGradGradGradGradGradGradGradGradGradGradGradGradGradGradGrad

                          Input orientation:                          
 ---------------------------------------------------------------------
 Center     Atomic      Atomic             Coordinates (Angstroms)
 Number     Number       Type             X           Y           Z
 ---------------------------------------------------------------------
      1          6           0       -1.179464    1.827034   -0.469808
      2          7           0       -1.060834    0.753850   -1.466339
      3          6           0       -1.028721   -0.489276   -1.215647
      4          6           0       -0.914413   -1.017730   -2.448198
      5          7           0       -0.884347   -0.116471   -3.340264
      6          6           0       -0.976502    0.976748   -2.709990
      7          6           0       -1.087400   -1.191300   -0.050800
      8          8           0       -1.191255   -0.640080    1.029053
      9          8           0       -1.029600   -2.548600   -0.079700
     10          1           0       -0.317587    1.806548    0.235226
     11          1           0       -1.183188    2.834797   -0.943103
     12          1           0       -2.134203    1.734312    0.096273
     13          1           0       -0.850880   -2.081717   -2.712663
     14          1           0       -0.983695    1.975874   -3.159603
     15          1           0       -1.082227   -2.910025    0.818587
 ---------------------------------------------------------------------
                    Distance matrix (angstroms):
                    1          2          3          4          5
     1  C    0.000000
     2  N    1.469310   0.000000
     3  C    2.438092   1.268558   0.000000
     4  C    3.475192   2.030758   1.345924   0.000000
     5  N    3.479055   2.073692   2.161903   1.268446   0.000000
     6  C    2.404704   1.266279   2.094042   2.012543   1.265253
     7  C    3.048669   2.405840   1.361304   2.409889   3.466563
     8  O    2.886758   2.861299   2.255623   3.508637   4.411268
     9  O    4.395545   3.581888   2.351849   2.822519   4.070335
    10  H    1.113699   2.134459   2.807410   3.941257   4.099188
    11  H    1.113377   2.149207   3.338803   4.144818   3.813879
    12  H    1.113809   2.134287   2.808481   3.941567   4.098454
    13  H    4.518485   3.104488   2.192841   1.098202   2.063298
    14  H    2.701015   2.089602   3.139739   3.077753   2.102479
    15  H    4.910107   4.318024   3.162436   3.778998   5.013896
                    6          7          8          9         10
     6  C    0.000000
     7  C    3.432786   0.000000
     8  O    4.079300   1.216845   0.000000
     9  O    4.398786   1.358837   2.213123   0.000000
    10  H    3.130021   3.108298   2.716513   4.424190   0.000000
    11  H    2.572345   4.124905   3.995527   5.454358   1.787462
    12  H    3.128784   3.110728   2.719736   4.426561   1.823354
    13  H    3.061045   2.816789   4.024253   2.680003   4.908468
    14  H    1.095654   4.439190   4.942787   5.473462   3.463703
    15  H    5.250623   1.926104   2.282287   0.969700   4.813631
                   11         12         13         14         15
    11  H    0.000000
    12  H    1.787680   0.000000
    13  H    5.235827   4.909085   0.000000
    14  H    2.385460   3.461611   4.084292   0.000000
    15  H    6.009720   4.816457   3.634466   6.301407   0.000000
 Stoichiometry    C5H6N2O2
 Framework group  C1[X(C5H6N2O2)]
 Deg. of freedom    39
 Full point group                 C1      NOp   1
 Largest Abelian subgroup         C1      NOp   1
 Largest concise Abelian subgroup C1      NOp   1
                         Standard orientation:                         
 ---------------------------------------------------------------------
 Center     Atomic      Atomic             Coordinates (Angstroms)
 Number     Number       Type             X           Y           Z
 ---------------------------------------------------------------------
      1          6           0       -0.985396    1.949934   -0.000118
      2          7           0       -0.960508    0.480834    0.000071
      3          6           0        0.081856   -0.242157    0.000043
      4          6           0       -0.441033   -1.482358   -0.000026
      5          7           0       -1.709139   -1.453009    0.000007
      6          6           0       -2.012112   -0.224567    0.000035
      7          6           0        1.408660    0.062376   -0.000029
      8          8           0        1.805622    1.212651    0.000126
      9          8           0        2.328462   -0.937827   -0.000063
     10          1           0       -0.486025    2.351959   -0.910793
     11          1           0       -2.025277    2.347744   -0.002110
     12          1           0       -0.489319    2.351805    0.912558
     13          1           0        0.105564   -2.434870   -0.000110
     14          1           0       -3.028872    0.183670    0.000080
     15          1           0        3.226934   -0.573045   -0.000114
 ---------------------------------------------------------------------
 Rotational constants (GHZ):           3.0148061           1.6525013           1.0750265
 Standard basis: Aug-CC-pVTZ (5D, 7F)
 There are   645 symmetry adapted cartesian basis functions of A   symmetry.
 There are   552 symmetry adapted basis functions of A   symmetry.
   552 basis functions,   810 primitive gaussians,   645 cartesian basis functions
    33 alpha electrons       33 beta electrons
       nuclear repulsion energy       455.8948607590 Hartrees.
 NAtoms=   15 NActive=   15 NUniq=   15 SFac= 1.00D+00 NAtFMM=   60 NAOKFM=F Big=F
 Integral buffers will be    131072 words long.
 Raffenetti 2 integral format.
 Two-electron integral symmetry is turned on.
 One-electron integrals computed using PRISM.
 NBasis=   552 RedAO= T EigKep=  1.73D-06  NBF=   552
 NBsUse=   552 1.00D-06 EigRej= -1.00D+00 NBFU=   552
 ExpMin= 2.53D-02 ExpMax= 1.53D+04 ExpMxC= 5.22D+02 IAcc=3 IRadAn=         5 AccDes= 0.00D+00
 Harris functional with IExCor= 1009 and IRadAn=       5 diagonalized for initial guess.
 HarFok:  IExCor= 1009 AccDes= 0.00D+00 IRadAn=         5 IDoV= 1 UseB2=F ITyADJ=14
 ICtDFT=  3500011 ScaDFX=  1.000000  1.000000  1.000000  1.000000
 FoFCou: FMM=F IPFlag=           0 FMFlag=      100000 FMFlg1=           0
         NFxFlg=           0 DoJE=T BraDBF=F KetDBF=T FulRan=T
         wScrn=  0.000000 ICntrl=       500 IOpCl=  0 I1Cent=   200000004 NGrid=           0
         NMat0=    1 NMatS0=      1 NMatT0=    0 NMatD0=    1 NMtDS0=    0 NMtDT0=    0
 Petite list used in FoFCou.
 Requested convergence on RMS density matrix=1.00D-08 within 128 cycles.
 Requested convergence on MAX density matrix=1.00D-06.
 Requested convergence on             energy=1.00D-06.
 No special actions if energy rises.
 SCF Done:  E(RM062X) =  -454.062583289     A.U. after   14 cycles
            NFock= 14  Conv=0.26D-08     -V/T= 2.0025

 **********************************************************************

            Population analysis using the SCF Density.

 **********************************************************************

 Orbital symmetries:
       Occupied  (A) (A) (A) (A) (A) (A) (A) (A) (A) (A) (A) (A)
                 (A) (A) (A) (A) (A) (A) (A) (A) (A) (A) (A) (A)
                 (A) (A) (A) (A) (A) (A) (A) (A) (A)
       Virtual   (A) (A) (A) (A) (A) (A) (A) (A) (A) (A) (A) (A)
                 (A) (A) (A) (A) (A) (A) (A) (A) (A) (A) (A) (A)
                 (A) (A) (A) (A) (A) (A) (A) (A) (A) (A) (A) (A)
                 (A) (A) (A) (A) (A) (A) (A) (A) (A) (A) (A) (A)
                 (A) (A) (A) (A) (A) (A) (A) (A) (A) (A) (A) (A)
                 (A) (A) (A) (A) (A) (A) (A) (A) (A) (A) (A) (A)
                 (A) (A) (A) (A) (A) (A) (A) (A) (A) (A) (A) (A)
                 (A) (A) (A) (A) (A) (A) (A) (A) (A) (A) (A) (A)
                 (A) (A) (A) (A) (A) (A) (A) (A) (A) (A) (A) (A)
                 (A) (A) (A) (A) (A) (A) (A) (A) (A) (A) (A) (A)
                 (A) (A) (A) (A) (A) (A) (A) (A) (A) (A) (A) (A)
                 (A) (A) (A) (A) (A) (A) (A) (A) (A) (A) (A) (A)
                 (A) (A) (A) (A) (A) (A) (A) (A) (A) (A) (A) (A)
                 (A) (A) (A) (A) (A) (A) (A) (A) (A) (A) (A) (A)
                 (A) (A) (A) (A) (A) (A) (A) (A) (A) (A) (A) (A)
                 (A) (A) (A) (A) (A) (A) (A) (A) (A) (A) (A) (A)
                 (A) (A) (A) (A) (A) (A) (A) (A) (A) (A) (A) (A)
                 (A) (A) (A) (A) (A) (A) (A) (A) (A) (A) (A) (A)
                 (A) (A) (A) (A) (A) (A) (A) (A) (A) (A) (A) (A)
                 (A) (A) (A) (A) (A) (A) (A) (A) (A) (A) (A) (A)
                 (A) (A) (A) (A) (A) (A) (A) (A) (A) (A) (A) (A)
                 (A) (A) (A) (A) (A) (A) (A) (A) (A) (A) (A) (A)
                 (A) (A) (A) (A) (A) (A) (A) (A) (A) (A) (A) (A)
                 (A) (A) (A) (A) (A) (A) (A) (A) (A) (A) (A) (A)
                 (A) (A) (A) (A) (A) (A) (A) (A) (A) (A) (A) (A)
                 (A) (A) (A) (A) (A) (A) (A) (A) (A) (A) (A) (A)
                 (A) (A) (A) (A) (A) (A) (A) (A) (A) (A) (A) (A)
                 (A) (A) (A) (A) (A) (A) (A) (A) (A) (A) (A) (A)
                 (A) (A) (A) (A) (A) (A) (A) (A) (A) (A) (A) (A)
                 (A) (A) (A) (A) (A) (A) (A) (A) (A) (A) (A) (A)
                 (A) (A) (A) (A) (A) (A) (A) (A) (A) (A) (A) (A)
                 (A) (A) (A) (A) (A) (A) (A) (A) (A) (A) (A) (A)
                 (A) (A) (A) (A) (A) (A) (A) (A) (A) (A) (A) (A)
                 (A) (A) (A) (A) (A) (A) (A) (A) (A) (A) (A) (A)
                 (A) (A) (A) (A) (A) (A) (A) (A) (A) (A) (A) (A)
                 (A) (A) (A) (A) (A) (A) (A) (A) (A) (A) (A) (A)
                 (A) (A) (A) (A) (A) (A) (A) (A) (A) (A) (A) (A)
                 (A) (A) (A) (A) (A) (A) (A) (A) (A) (A) (A) (A)
                 (A) (A) (A) (A) (A) (A) (A) (A) (A) (A) (A) (A)
                 (A) (A) (A) (A) (A) (A) (A) (A) (A) (A) (A) (A)
                 (A) (A) (A) (A) (A) (A) (A) (A) (A) (A) (A) (A)
                 (A) (A) (A) (A) (A) (A) (A) (A) (A) (A) (A) (A)
                 (A) (A) (A) (A) (A) (A) (A) (A) (A) (A) (A) (A)
                 (A) (A) (A)
 The electronic state is 1-A.
 Alpha  occ. eigenvalues --  -19.67215 -19.61133 -14.83079 -14.72716 -10.68161
 Alpha  occ. eigenvalues --  -10.60237 -10.59846 -10.56537 -10.55803  -1.24148
 Alpha  occ. eigenvalues --   -1.22080  -1.13682  -1.03963  -0.91563  -0.83395
 Alpha  occ. eigenvalues --   -0.78041  -0.72610  -0.66167  -0.64982  -0.60639
 Alpha  occ. eigenvalues --   -0.58728  -0.56989  -0.53374  -0.51900  -0.49772
 Alpha  occ. eigenvalues --   -0.49501  -0.48501  -0.47074  -0.40379  -0.36960
 Alpha  occ. eigenvalues --   -0.36931  -0.34684  -0.30998
 Alpha virt. eigenvalues --   -0.01055  -0.00782  -0.00022   0.01117   0.01294
 Alpha virt. eigenvalues --    0.01953   0.02785   0.04067   0.04354   0.05087
 Alpha virt. eigenvalues --    0.06074   0.06545   0.07054   0.07976   0.08248
 Alpha virt. eigenvalues --    0.08431   0.08804   0.08852   0.09392   0.09759
 Alpha virt. eigenvalues --    0.09954   0.10288   0.10778   0.11016   0.12353
 Alpha virt. eigenvalues --    0.12763   0.14202   0.14779   0.15240   0.15700
 Alpha virt. eigenvalues --    0.16660   0.17255   0.17675   0.18103   0.18106
 Alpha virt. eigenvalues --    0.18439   0.19434   0.19469   0.20307   0.21149
 Alpha virt. eigenvalues --    0.21931   0.22058   0.22276   0.22474   0.23380
 Alpha virt. eigenvalues --    0.23902   0.24227   0.25562   0.25746   0.26465
 Alpha virt. eigenvalues --    0.27414   0.27669   0.28125   0.29058   0.29329
 Alpha virt. eigenvalues --    0.29625   0.29780   0.30724   0.31381   0.31779
 Alpha virt. eigenvalues --    0.32523   0.32590   0.33347   0.33802   0.34597
 Alpha virt. eigenvalues --    0.35467   0.35779   0.36207   0.36800   0.37808
 Alpha virt. eigenvalues --    0.38094   0.38444   0.39305   0.39685   0.40620
 Alpha virt. eigenvalues --    0.40748   0.40895   0.41855   0.42911   0.43060
 Alpha virt. eigenvalues --    0.43304   0.43606   0.44569   0.44752   0.45111
 Alpha virt. eigenvalues --    0.46304   0.46564   0.47978   0.48020   0.49923
 Alpha virt. eigenvalues --    0.50320   0.50947   0.51813   0.52186   0.54368
 Alpha virt. eigenvalues --    0.55121   0.55300   0.56277   0.56853   0.57731
 Alpha virt. eigenvalues --    0.58341   0.60099   0.60221   0.60958   0.62377
 Alpha virt. eigenvalues --    0.62628   0.64100   0.64299   0.65207   0.65548
 Alpha virt. eigenvalues --    0.66204   0.67593   0.68051   0.68678   0.70247
 Alpha virt. eigenvalues --    0.70260   0.71532   0.71626   0.72763   0.72892
 Alpha virt. eigenvalues --    0.74133   0.74532   0.75092   0.75729   0.75848
 Alpha virt. eigenvalues --    0.76406   0.78095   0.78140   0.79256   0.79757
 Alpha virt. eigenvalues --    0.80010   0.81192   0.81562   0.81590   0.83057
 Alpha virt. eigenvalues --    0.83125   0.83557   0.85044   0.86822   0.86877
 Alpha virt. eigenvalues --    0.87319   0.88273   0.88494   0.89561   0.90114
 Alpha virt. eigenvalues --    0.90304   0.91251   0.91864   0.92252   0.92869
 Alpha virt. eigenvalues --    0.94244   0.95207   0.96375   0.96548   0.97025
 Alpha virt. eigenvalues --    0.99028   0.99665   1.00126   1.00472   1.01295
 Alpha virt. eigenvalues --    1.02304   1.02754   1.02790   1.03012   1.03188
 Alpha virt. eigenvalues --    1.05999   1.06527   1.06926   1.08127   1.08920
 Alpha virt. eigenvalues --    1.08971   1.09635   1.10246   1.11075   1.11643
 Alpha virt. eigenvalues --    1.14643   1.15948   1.16461   1.17178   1.18326
 Alpha virt. eigenvalues --    1.18681   1.21907   1.22085   1.23218   1.23745
 Alpha virt. eigenvalues --    1.24910   1.26354   1.27451   1.27604   1.28629
 Alpha virt. eigenvalues --    1.29291   1.30660   1.30702   1.31505   1.32783
 Alpha virt. eigenvalues --    1.33429   1.34759   1.35130   1.35530   1.35869
 Alpha virt. eigenvalues --    1.36744   1.38441   1.39218   1.40328   1.40976
 Alpha virt. eigenvalues --    1.41480   1.43921   1.46206   1.46381   1.46764
 Alpha virt. eigenvalues --    1.47155   1.47555   1.50052   1.50184   1.51972
 Alpha virt. eigenvalues --    1.52128   1.54297   1.54649   1.56263   1.56532
 Alpha virt. eigenvalues --    1.56650   1.57568   1.59706   1.60915   1.61043
 Alpha virt. eigenvalues --    1.61985   1.64686   1.64845   1.65431   1.66915
 Alpha virt. eigenvalues --    1.68206   1.71306   1.72370   1.73063   1.74435
 Alpha virt. eigenvalues --    1.75505   1.75982   1.77419   1.77546   1.79020
 Alpha virt. eigenvalues --    1.81774   1.82825   1.83783   1.84118   1.86175
 Alpha virt. eigenvalues --    1.86872   1.88538   1.89272   1.91834   1.92852
 Alpha virt. eigenvalues --    1.94148   1.94451   1.95077   1.95245   1.99023
 Alpha virt. eigenvalues --    1.99658   2.00196   2.00843   2.03824   2.05691
 Alpha virt. eigenvalues --    2.06664   2.07235   2.08864   2.10219   2.10765
 Alpha virt. eigenvalues --    2.13462   2.14651   2.15341   2.15602   2.17712
 Alpha virt. eigenvalues --    2.21448   2.21684   2.21839   2.23615   2.25739
 Alpha virt. eigenvalues --    2.27254   2.27386   2.28237   2.29736   2.32273
 Alpha virt. eigenvalues --    2.34210   2.34376   2.36252   2.37689   2.38350
 Alpha virt. eigenvalues --    2.38476   2.40703   2.40803   2.42673   2.45189
 Alpha virt. eigenvalues --    2.46929   2.47279   2.49192   2.53632   2.54279
 Alpha virt. eigenvalues --    2.55812   2.56487   2.59038   2.59554   2.63410
 Alpha virt. eigenvalues --    2.64967   2.67001   2.71032   2.72889   2.73260
 Alpha virt. eigenvalues --    2.75002   2.76302   2.79475   2.81308   2.83115
 Alpha virt. eigenvalues --    2.84548   2.87976   2.88523   2.91142   2.92304
 Alpha virt. eigenvalues --    2.96559   3.00759   3.02857   3.06433   3.06626
 Alpha virt. eigenvalues --    3.10042   3.11429   3.12881   3.14672   3.16092
 Alpha virt. eigenvalues --    3.16962   3.17457   3.19352   3.21793   3.23431
 Alpha virt. eigenvalues --    3.25794   3.27783   3.28177   3.30381   3.31107
 Alpha virt. eigenvalues --    3.32060   3.32357   3.34396   3.37892   3.38457
 Alpha virt. eigenvalues --    3.38916   3.42545   3.43234   3.43455   3.45842
 Alpha virt. eigenvalues --    3.47469   3.48676   3.49949   3.51316   3.51732
 Alpha virt. eigenvalues --    3.55584   3.56099   3.58327   3.59571   3.61426
 Alpha virt. eigenvalues --    3.61538   3.62676   3.62740   3.64648   3.65171
 Alpha virt. eigenvalues --    3.67342   3.70151   3.71167   3.71898   3.72726
 Alpha virt. eigenvalues --    3.74548   3.75715   3.76420   3.77346   3.79441
 Alpha virt. eigenvalues --    3.80191   3.82792   3.84737   3.86529   3.88312
 Alpha virt. eigenvalues --    3.91092   3.91101   3.92610   3.93742   3.94787
 Alpha virt. eigenvalues --    3.95497   3.96690   3.99574   3.99625   4.00419
 Alpha virt. eigenvalues --    4.04109   4.05871   4.08983   4.12055   4.12423
 Alpha virt. eigenvalues --    4.13482   4.16781   4.18403   4.18996   4.21078
 Alpha virt. eigenvalues --    4.22247   4.24659   4.25398   4.26417   4.26984
 Alpha virt. eigenvalues --    4.30407   4.32816   4.33842   4.38179   4.41110
 Alpha virt. eigenvalues --    4.42127   4.42990   4.43944   4.48829   4.53005
 Alpha virt. eigenvalues --    4.53201   4.54391   4.58636   4.59124   4.60757
 Alpha virt. eigenvalues --    4.62593   4.65090   4.65528   4.66182   4.68329
 Alpha virt. eigenvalues --    4.70528   4.73363   4.73673   4.75638   4.79260
 Alpha virt. eigenvalues --    4.79429   4.79665   4.83045   4.84742   4.84875
 Alpha virt. eigenvalues --    4.85755   4.90256   4.99456   5.01923   5.04517
 Alpha virt. eigenvalues --    5.05560   5.06635   5.08150   5.09616   5.11435
 Alpha virt. eigenvalues --    5.13769   5.16879   5.21243   5.22399   5.26770
 Alpha virt. eigenvalues --    5.28766   5.34188   5.35008   5.35779   5.42001
 Alpha virt. eigenvalues --    5.42853   5.45810   5.50366   5.51842   5.53664
 Alpha virt. eigenvalues --    5.54693   5.56465   5.59169   5.59255   5.64769
 Alpha virt. eigenvalues --    5.66224   5.68711   5.72911   5.73171   5.76877
 Alpha virt. eigenvalues --    5.82211   5.83706   5.86111   5.93897   6.03276
 Alpha virt. eigenvalues --    6.09818   6.14596   6.18350   6.22345   6.24157
 Alpha virt. eigenvalues --    6.25426   6.31000   6.31311   6.33419   6.36982
 Alpha virt. eigenvalues --    6.39330   6.42191   6.46376   6.47580   6.50204
 Alpha virt. eigenvalues --    6.55839   6.57999   6.60589   6.62926   6.71536
 Alpha virt. eigenvalues --    6.75546   6.77026   6.81488   6.84280   6.85556
 Alpha virt. eigenvalues --    6.85746   6.87141   6.91441   6.99809   7.04375
 Alpha virt. eigenvalues --    7.08832   7.09824   7.14242   7.25310   7.37196
 Alpha virt. eigenvalues --    7.39049   7.54493   7.68416   7.86039   8.05285
 Alpha virt. eigenvalues --   15.23871  15.91545  17.19815  17.72778  18.63481
 Alpha virt. eigenvalues --   19.05652  19.72343  20.47608  21.33467
          Condensed to atoms (all electrons):
               1          2          3          4          5          6
     1  C    6.058496   0.368912  -0.243153  -0.019183   0.006306  -0.341311
     2  N    0.368912   7.087183  -0.726395   0.277198  -0.509694   0.599548
     3  C   -0.243153  -0.726395   7.749013  -0.766315   0.636326  -0.805775
     4  C   -0.019183   0.277198  -0.766315   8.630507  -0.972207  -0.112276
     5  N    0.006306  -0.509694   0.636326  -0.972207   8.810026  -0.097012
     6  C   -0.341311   0.599548  -0.805775  -0.112276  -0.097012   7.316900
     7  C    0.062167  -0.276053  -0.414975  -1.459222   0.264478  -0.186820
     8  O   -0.047539  -0.130033   0.138509   0.086426  -0.026591   0.017698
     9  O   -0.018837  -0.010355  -0.069692   0.020653  -0.004406   0.022134
    10  H    0.388514   0.007431  -0.016576   0.014296  -0.003754  -0.012531
    11  H    0.348401  -0.035101  -0.010919  -0.004621   0.000079   0.031863
    12  H    0.388491   0.007480  -0.016809   0.014276  -0.003713  -0.012520
    13  H   -0.006794   0.015909  -0.198987   0.520025  -0.185466   0.022519
    14  H   -0.017753  -0.070408  -0.029525  -0.007621  -0.029246   0.089876
    15  H    0.001751   0.017192  -0.080338  -0.008054   0.003803  -0.002283
               7          8          9         10         11         12
     1  C    0.062167  -0.047539  -0.018837   0.388514   0.348401   0.388491
     2  N   -0.276053  -0.130033  -0.010355   0.007431  -0.035101   0.007480
     3  C   -0.414975   0.138509  -0.069692  -0.016576  -0.010919  -0.016809
     4  C   -1.459222   0.086426   0.020653   0.014296  -0.004621   0.014276
     5  N    0.264478  -0.026591  -0.004406  -0.003754   0.000079  -0.003713
     6  C   -0.186820   0.017698   0.022134  -0.012531   0.031863  -0.012520
     7  C    7.946531  -0.275826   0.031801  -0.020014   0.011943  -0.019945
     8  O   -0.275826   9.366017  -0.106473  -0.010217  -0.000844  -0.010163
     9  O    0.031801  -0.106473   8.591640  -0.000324  -0.000580  -0.000315
    10  H   -0.020014  -0.010217  -0.000324   0.320251  -0.009895   0.027505
    11  H    0.011943  -0.000844  -0.000580  -0.009895   0.413569  -0.009730
    12  H   -0.019945  -0.010163  -0.000315   0.027505  -0.009730   0.319952
    13  H   -0.136541   0.003453  -0.028792   0.000422  -0.001456   0.000419
    14  H    0.013608   0.000745   0.000858  -0.001979  -0.004454  -0.001961
    15  H    0.121727  -0.119323   0.148864   0.000420   0.000144   0.000423
              13         14         15
     1  C   -0.006794  -0.017753   0.001751
     2  N    0.015909  -0.070408   0.017192
     3  C   -0.198987  -0.029525  -0.080338
     4  C    0.520025  -0.007621  -0.008054
     5  N   -0.185466  -0.029246   0.003803
     6  C    0.022519   0.089876  -0.002283
     7  C   -0.136541   0.013608   0.121727
     8  O    0.003453   0.000745  -0.119323
     9  O   -0.028792   0.000858   0.148864
    10  H    0.000422  -0.001979   0.000420
    11  H   -0.001456  -0.004454   0.000144
    12  H    0.000419  -0.001961   0.000423
    13  H    0.450126  -0.000935  -0.000301
    14  H   -0.000935   0.343252  -0.000149
    15  H   -0.000301  -0.000149   0.629511
 Mulliken charges:
               1
     1  C   -0.928468
     2  N    0.377185
     3  C    0.855611
     4  C   -0.213883
     5  N   -0.888930
     6  C   -0.530010
     7  C    0.337140
     8  O   -0.885838
     9  O   -0.576174
    10  H    0.316451
    11  H    0.271601
    12  H    0.316609
    13  H    0.546400
    14  H    0.715692
    15  H    0.286613
 Sum of Mulliken charges =   0.00000
 Mulliken charges with hydrogens summed into heavy atoms:
               1
     1  C   -0.023807
     2  N    0.377185
     3  C    0.855611
     4  C    0.332517
     5  N   -0.888930
     6  C    0.185682
     7  C    0.337140
     8  O   -0.885838
     9  O   -0.289561
 Electronic spatial extent (au):  <R**2>=           1043.3697
 Charge=              0.0000 electrons
 Dipole moment (field-independent basis, Debye):
    X=             -0.5956    Y=              2.0808    Z=             -0.0007  Tot=              2.1644
 Quadrupole moment (field-independent basis, Debye-Ang):
   XX=            -47.1140   YY=            -54.6944   ZZ=            -51.9136
   XY=            -11.0256   XZ=             -0.0010   YZ=             -0.0017
 Traceless Quadrupole moment (field-independent basis, Debye-Ang):
   XX=              4.1267   YY=             -3.4537   ZZ=             -0.6730
   XY=            -11.0256   XZ=             -0.0010   YZ=             -0.0017
 Octapole moment (field-independent basis, Debye-Ang**2):
  XXX=             32.2419  YYY=             12.2273  ZZZ=              0.0040  XYY=              0.7211
  XXY=              7.2666  XXZ=             -0.0059  XZZ=              5.3071  YZZ=              3.6043
  YYZ=             -0.0053  XYZ=              0.0001
 Hexadecapole moment (field-independent basis, Debye-Ang**3):
 XXXX=           -615.8759 YYYY=           -484.6703 ZZZZ=            -57.6695 XXXY=            -69.7603
 XXXZ=              0.0028 YYYX=            -41.9785 YYYZ=             -0.0124 ZZZX=             -0.0047
 ZZZY=              0.0093 XXYY=           -252.7629 XXZZ=           -145.0287 YYZZ=            -92.3146
 XXYZ=             -0.0126 YYXZ=              0.0018 ZZXY=             -1.4462
 N-N= 4.558948607590D+02 E-N=-1.973472693803D+03  KE= 4.529283774342D+02
 ******************************Gaussian NBO Version 3.1******************************
             N A T U R A L   A T O M I C   O R B I T A L   A N D
          N A T U R A L   B O N D   O R B I T A L   A N A L Y S I S
 ******************************Gaussian NBO Version 3.1******************************
       /RESON  / : Allow strongly delocalized NBO set

 Analyzing the SCF density

 Job title: 16                                                              

 Storage needed:    916440 in NPA,   1220743 in NBO (********** available)
 GSVD:  LWork=       -2616 too small for GESVD, short by      613746 words or      613746 for optimal perf.


 NATURAL POPULATIONS:  Natural atomic orbital occupancies 
                                                          
   NAO  Atom  No  lang   Type(AO)    Occupancy      Energy
 ----------------------------------------------------------
     1    C    1  S      Cor( 1S)     1.99944     -10.47380
     2    C    1  S      Val( 2S)     1.09424      -0.33478
     3    C    1  S      Ryd( 3S)     0.00087       1.18159
     4    C    1  S      Ryd( 5S)     0.00007       5.03980
     5    C    1  S      Ryd( 4S)     0.00002       1.23457
     6    C    1  px     Val( 2p)     1.21682      -0.15806
     7    C    1  px     Ryd( 3p)     0.00197       1.20259
     8    C    1  px     Ryd( 5p)     0.00010       1.98382
     9    C    1  px     Ryd( 4p)     0.00003       1.25266
    10    C    1  py     Val( 2p)     0.83074      -0.09359
    11    C    1  py     Ryd( 4p)     0.00166       1.20932
    12    C    1  py     Ryd( 5p)     0.00010       1.69115
    13    C    1  py     Ryd( 3p)     0.00002       1.13634
    14    C    1  pz     Val( 2p)     1.22718      -0.16146
    15    C    1  pz     Ryd( 4p)     0.00074       1.08445
    16    C    1  pz     Ryd( 5p)     0.00007       1.83244
    17    C    1  pz     Ryd( 3p)     0.00001       0.93214
    18    C    1  dxy    Ryd( 4d)     0.00031       1.74207
    19    C    1  dxy    Ryd( 5d)     0.00009       3.48388
    20    C    1  dxy    Ryd( 3d)     0.00003       1.24740
    21    C    1  dxz    Ryd( 4d)     0.00167       1.62115
    22    C    1  dxz    Ryd( 5d)     0.00001       3.36573
    23    C    1  dxz    Ryd( 3d)     0.00000       1.27894
    24    C    1  dyz    Ryd( 4d)     0.00115       1.52396
    25    C    1  dyz    Ryd( 5d)     0.00005       3.30051
    26    C    1  dyz    Ryd( 3d)     0.00003       1.05104
    27    C    1  dx2y2  Ryd( 4d)     0.00173       2.19629
    28    C    1  dx2y2  Ryd( 5d)     0.00008       3.73593
    29    C    1  dx2y2  Ryd( 3d)     0.00002       1.42645
    30    C    1  dz2    Ryd( 4d)     0.00214       1.83192
    31    C    1  dz2    Ryd( 5d)     0.00006       3.57262
    32    C    1  dz2    Ryd( 3d)     0.00003       1.51577
    33    C    1  f(0)   Ryd( 5f)     0.00001       3.88168
    34    C    1  f(0)   Ryd( 4f)     0.00002       2.12657
    35    C    1  f(C1)  Ryd( 5f)     0.00015       4.03524
    36    C    1  f(C1)  Ryd( 4f)     0.00002       3.04592
    37    C    1  f(S1)  Ryd( 5f)     0.00006       4.19486
    38    C    1  f(S1)  Ryd( 4f)     0.00005       3.29708
    39    C    1  f(C2)  Ryd( 5f)     0.00002       3.93762
    40    C    1  f(C2)  Ryd( 4f)     0.00004       2.16814
    41    C    1  f(S2)  Ryd( 5f)     0.00002       3.94242
    42    C    1  f(S2)  Ryd( 4f)     0.00003       2.58277
    43    C    1  f(C3)  Ryd( 5f)     0.00004       4.26672
    44    C    1  f(C3)  Ryd( 4f)     0.00002       2.67558
    45    C    1  f(S3)  Ryd( 5f)     0.00005       4.23898
    46    C    1  f(S3)  Ryd( 4f)     0.00005       2.65743
 
    47    N    2  S      Cor( 1S)     1.99910     -14.61033
    48    N    2  S      Val( 2S)     1.14665      -0.54892
    49    N    2  S      Ryd( 3S)     0.00186       2.30044
    50    N    2  S      Ryd( 4S)     0.00004       3.04426
    51    N    2  S      Ryd( 5S)     0.00001       8.96614
    52    N    2  px     Val( 2p)     1.30823      -0.31233
    53    N    2  px     Ryd( 4p)     0.00204       2.39495
    54    N    2  px     Ryd( 5p)     0.00009       4.39705
    55    N    2  px     Ryd( 3p)     0.00006       1.40606
    56    N    2  py     Val( 2p)     1.30825      -0.31743
    57    N    2  py     Ryd( 4p)     0.00395       2.96406
    58    N    2  py     Ryd( 5p)     0.00004       5.37343
    59    N    2  py     Ryd( 3p)     0.00004       1.27007
    60    N    2  pz     Val( 2p)     1.49342      -0.32562
    61    N    2  pz     Ryd( 4p)     0.00322       0.88461
    62    N    2  pz     Ryd( 5p)     0.00003       3.43776
    63    N    2  pz     Ryd( 3p)     0.00004       0.81594
    64    N    2  dxy    Ryd( 5d)     0.00287       5.46110
    65    N    2  dxy    Ryd( 4d)     0.00036       5.30514
    66    N    2  dxy    Ryd( 3d)     0.00010       3.39363
    67    N    2  dxz    Ryd( 3d)     0.00167       1.56954
    68    N    2  dxz    Ryd( 5d)     0.00003       4.13689
    69    N    2  dxz    Ryd( 4d)     0.00017       2.39903
    70    N    2  dyz    Ryd( 3d)     0.00079       1.68655
    71    N    2  dyz    Ryd( 5d)     0.00017       4.23293
    72    N    2  dyz    Ryd( 4d)     0.00006       2.40934
    73    N    2  dx2y2  Ryd( 3d)     0.00052       3.59656
    74    N    2  dx2y2  Ryd( 5d)     0.00040       4.99762
    75    N    2  dx2y2  Ryd( 4d)     0.00010       3.88179
    76    N    2  dz2    Ryd( 3d)     0.00187       2.50484
    77    N    2  dz2    Ryd( 5d)     0.00023       4.51576
    78    N    2  dz2    Ryd( 4d)     0.00015       4.13224
    79    N    2  f(0)   Ryd( 4f)     0.00173       1.66362
    80    N    2  f(0)   Ryd( 5f)     0.00013       4.85929
    81    N    2  f(C1)  Ryd( 4f)     0.00141       2.07830
    82    N    2  f(C1)  Ryd( 5f)     0.00009       4.91058
    83    N    2  f(S1)  Ryd( 4f)     0.00195       2.54733
    84    N    2  f(S1)  Ryd( 5f)     0.00010       4.96625
    85    N    2  f(C2)  Ryd( 4f)     0.00086       1.57467
    86    N    2  f(C2)  Ryd( 5f)     0.00005       4.89920
    87    N    2  f(S2)  Ryd( 4f)     0.00042       1.69058
    88    N    2  f(S2)  Ryd( 5f)     0.00008       4.98781
    89    N    2  f(C3)  Ryd( 4f)     0.00159       2.22144
    90    N    2  f(C3)  Ryd( 5f)     0.00019       5.57567
    91    N    2  f(S3)  Ryd( 4f)     0.00075       2.99329
    92    N    2  f(S3)  Ryd( 5f)     0.00014       5.44381
 
    93    C    3  S      Cor( 1S)     1.99878     -10.39261
    94    C    3  S      Val( 2S)     0.83125      -0.05361
    95    C    3  S      Ryd( 4S)     0.00145       2.00877
    96    C    3  S      Ryd( 5S)     0.00010       3.15835
    97    C    3  S      Ryd( 3S)     0.00003       1.70207
    98    C    3  px     Val( 2p)     1.05027      -0.08641
    99    C    3  px     Ryd( 5p)     0.00370       2.56855
   100    C    3  px     Ryd( 4p)     0.00021       2.16419
   101    C    3  px     Ryd( 3p)     0.00013       0.90569
   102    C    3  py     Val( 2p)     1.04325      -0.09529
   103    C    3  py     Ryd( 4p)     0.00642       1.99138
   104    C    3  py     Ryd( 5p)     0.00014       2.35657
   105    C    3  py     Ryd( 3p)     0.00009       1.02044
   106    C    3  pz     Val( 2p)     1.15625      -0.14800
   107    C    3  pz     Ryd( 4p)     0.00440       1.04127
   108    C    3  pz     Ryd( 5p)     0.00024       1.49066
   109    C    3  pz     Ryd( 3p)     0.00004       0.60328
   110    C    3  dxy    Ryd( 3d)     0.00063       2.16116
   111    C    3  dxy    Ryd( 4d)     0.00075       4.36613
   112    C    3  dxy    Ryd( 5d)     0.00009       5.42657
   113    C    3  dxz    Ryd( 3d)     0.00069       1.20978
   114    C    3  dxz    Ryd( 5d)     0.00043       3.36956
   115    C    3  dxz    Ryd( 4d)     0.00005       2.57217
   116    C    3  dyz    Ryd( 3d)     0.00098       0.96460
   117    C    3  dyz    Ryd( 5d)     0.00020       3.25248
   118    C    3  dyz    Ryd( 4d)     0.00008       2.57116
   119    C    3  dx2y2  Ryd( 3d)     0.00113       2.41303
   120    C    3  dx2y2  Ryd( 4d)     0.00041       4.21674
   121    C    3  dx2y2  Ryd( 5d)     0.00003       4.87081
   122    C    3  dz2    Ryd( 3d)     0.00121       1.22387
   123    C    3  dz2    Ryd( 4d)     0.00031       4.44660
   124    C    3  dz2    Ryd( 5d)     0.00008       5.15856
   125    C    3  f(0)   Ryd( 4f)     0.00043       1.56099
   126    C    3  f(0)   Ryd( 5f)     0.00035       3.43468
   127    C    3  f(C1)  Ryd( 4f)     0.00082       2.07579
   128    C    3  f(C1)  Ryd( 5f)     0.00053       3.68927
   129    C    3  f(S1)  Ryd( 4f)     0.00056       1.75648
   130    C    3  f(S1)  Ryd( 5f)     0.00029       3.58566
   131    C    3  f(C2)  Ryd( 4f)     0.00099       1.65998
   132    C    3  f(C2)  Ryd( 5f)     0.00008       3.45013
   133    C    3  f(S2)  Ryd( 4f)     0.00075       1.45937
   134    C    3  f(S2)  Ryd( 5f)     0.00004       3.48368
   135    C    3  f(C3)  Ryd( 4f)     0.00193       2.49592
   136    C    3  f(C3)  Ryd( 5f)     0.00014       4.27651
   137    C    3  f(S3)  Ryd( 4f)     0.00106       2.77487
   138    C    3  f(S3)  Ryd( 5f)     0.00015       4.36580
 
   139    C    4  S      Cor( 1S)     1.99920     -10.40138
   140    C    4  S      Val( 2S)     0.91914      -0.15669
   141    C    4  S      Ryd( 4S)     0.00313       1.78581
   142    C    4  S      Ryd( 5S)     0.00017       2.15288
   143    C    4  S      Ryd( 3S)     0.00006       1.56195
   144    C    4  px     Val( 2p)     0.94385      -0.03852
   145    C    4  px     Ryd( 5p)     0.00600       1.70875
   146    C    4  px     Ryd( 4p)     0.00033       1.60507
   147    C    4  px     Ryd( 3p)     0.00009       1.33856
   148    C    4  py     Val( 2p)     1.10367      -0.06261
   149    C    4  py     Ryd( 5p)     0.00498       1.87326
   150    C    4  py     Ryd( 4p)     0.00012       1.50320
   151    C    4  py     Ryd( 3p)     0.00006       1.10031
   152    C    4  pz     Val( 2p)     0.97392      -0.12066
   153    C    4  pz     Ryd( 5p)     0.00189       1.15332
   154    C    4  pz     Ryd( 4p)     0.00017       1.14181
   155    C    4  pz     Ryd( 3p)     0.00007       0.74579
   156    C    4  dxy    Ryd( 3d)     0.00346       2.14020
   157    C    4  dxy    Ryd( 5d)     0.00011       3.63079
   158    C    4  dxy    Ryd( 4d)     0.00005       3.03513
   159    C    4  dxz    Ryd( 3d)     0.00133       1.38470
   160    C    4  dxz    Ryd( 5d)     0.00015       3.00049
   161    C    4  dxz    Ryd( 4d)     0.00009       2.01491
   162    C    4  dyz    Ryd( 3d)     0.00071       1.36796
   163    C    4  dyz    Ryd( 5d)     0.00004       3.05152
   164    C    4  dyz    Ryd( 4d)     0.00004       1.59530
   165    C    4  dx2y2  Ryd( 4d)     0.00063       2.76117
   166    C    4  dx2y2  Ryd( 5d)     0.00061       4.07099
   167    C    4  dx2y2  Ryd( 3d)     0.00003       2.39117
   168    C    4  dz2    Ryd( 3d)     0.00139       1.94567
   169    C    4  dz2    Ryd( 5d)     0.00019       3.83653
   170    C    4  dz2    Ryd( 4d)     0.00007       3.39167
   171    C    4  f(0)   Ryd( 5f)     0.00019       3.52050
   172    C    4  f(0)   Ryd( 4f)     0.00002       2.14498
   173    C    4  f(C1)  Ryd( 5f)     0.00014       3.82655
   174    C    4  f(C1)  Ryd( 4f)     0.00004       3.24464
   175    C    4  f(S1)  Ryd( 5f)     0.00024       3.72472
   176    C    4  f(S1)  Ryd( 4f)     0.00002       2.93171
   177    C    4  f(C2)  Ryd( 5f)     0.00001       3.70268
   178    C    4  f(C2)  Ryd( 4f)     0.00002       2.21063
   179    C    4  f(S2)  Ryd( 5f)     0.00001       3.63745
   180    C    4  f(S2)  Ryd( 4f)     0.00002       2.23484
   181    C    4  f(C3)  Ryd( 4f)     0.00016       4.44792
   182    C    4  f(C3)  Ryd( 5f)     0.00004       5.01593
   183    C    4  f(S3)  Ryd( 5f)     0.00005       4.58409
   184    C    4  f(S3)  Ryd( 4f)     0.00004       3.95913
 
   185    N    5  S      Cor( 1S)     1.99941     -14.49232
   186    N    5  S      Val( 2S)     1.34523      -0.56125
   187    N    5  S      Ryd( 4S)     0.00144       3.10358
   188    N    5  S      Ryd( 3S)     0.00007       1.77760
   189    N    5  S      Ryd( 5S)     0.00001       9.71021
   190    N    5  px     Val( 2p)     1.38363      -0.21013
   191    N    5  px     Ryd( 4p)     0.00414       2.06954
   192    N    5  px     Ryd( 3p)     0.00009       1.08758
   193    N    5  px     Ryd( 5p)     0.00007       4.15940
   194    N    5  py     Val( 2p)     1.46730      -0.22434
   195    N    5  py     Ryd( 4p)     0.00466       1.78690
   196    N    5  py     Ryd( 3p)     0.00009       0.90206
   197    N    5  py     Ryd( 5p)     0.00009       4.32690
   198    N    5  pz     Val( 2p)     1.22157      -0.19506
   199    N    5  pz     Ryd( 4p)     0.00072       1.16164
   200    N    5  pz     Ryd( 3p)     0.00006       0.59487
   201    N    5  pz     Ryd( 5p)     0.00001       3.05499
   202    N    5  dxy    Ryd( 3d)     0.00345       1.90015
   203    N    5  dxy    Ryd( 5d)     0.00021       4.16924
   204    N    5  dxy    Ryd( 4d)     0.00016       2.84153
   205    N    5  dxz    Ryd( 3d)     0.00234       1.32956
   206    N    5  dxz    Ryd( 5d)     0.00014       3.84624
   207    N    5  dxz    Ryd( 4d)     0.00003       2.33082
   208    N    5  dyz    Ryd( 3d)     0.00439       1.29854
   209    N    5  dyz    Ryd( 5d)     0.00012       3.84419
   210    N    5  dyz    Ryd( 4d)     0.00005       2.32160
   211    N    5  dx2y2  Ryd( 3d)     0.01106       2.93812
   212    N    5  dx2y2  Ryd( 5d)     0.00017       4.05260
   213    N    5  dx2y2  Ryd( 4d)     0.00006       3.03610
   214    N    5  dz2    Ryd( 3d)     0.01100       1.49376
   215    N    5  dz2    Ryd( 5d)     0.00003       3.92058
   216    N    5  dz2    Ryd( 4d)     0.00007       3.17599
   217    N    5  f(0)   Ryd( 5f)     0.00021       3.70398
   218    N    5  f(0)   Ryd( 4f)     0.00000       3.35615
   219    N    5  f(C1)  Ryd( 5f)     0.00014       4.31320
   220    N    5  f(C1)  Ryd( 4f)     0.00002       3.93305
   221    N    5  f(S1)  Ryd( 5f)     0.00012       4.28411
   222    N    5  f(S1)  Ryd( 4f)     0.00002       3.91671
   223    N    5  f(C2)  Ryd( 5f)     0.00002       3.88100
   224    N    5  f(C2)  Ryd( 4f)     0.00001       3.53300
   225    N    5  f(S2)  Ryd( 4f)     0.00001       3.47153
   226    N    5  f(S2)  Ryd( 5f)     0.00004       3.74388
   227    N    5  f(C3)  Ryd( 5f)     0.00015       5.18405
   228    N    5  f(C3)  Ryd( 4f)     0.00009       4.35106
   229    N    5  f(S3)  Ryd( 5f)     0.00007       4.82559
   230    N    5  f(S3)  Ryd( 4f)     0.00018       4.19161
 
   231    C    6  S      Cor( 1S)     1.99925     -10.44425
   232    C    6  S      Val( 2S)     0.86005      -0.12895
   233    C    6  S      Ryd( 4S)     0.00349       1.93584
   234    C    6  S      Ryd( 5S)     0.00014       3.21973
   235    C    6  S      Ryd( 3S)     0.00004       1.89283
   236    C    6  px     Val( 2p)     1.03645      -0.07449
   237    C    6  px     Ryd( 4p)     0.00415       1.88676
   238    C    6  px     Ryd( 3p)     0.00014       1.03550
   239    C    6  px     Ryd( 5p)     0.00005       2.03906
   240    C    6  py     Val( 2p)     0.89344      -0.04445
   241    C    6  py     Ryd( 4p)     0.00834       1.66296
   242    C    6  py     Ryd( 3p)     0.00030       1.02854
   243    C    6  py     Ryd( 5p)     0.00005       1.67921
   244    C    6  pz     Val( 2p)     0.97760      -0.14092
   245    C    6  pz     Ryd( 5p)     0.00315       1.13583
   246    C    6  pz     Ryd( 3p)     0.00002       0.76174
   247    C    6  pz     Ryd( 4p)     0.00009       0.89102
   248    C    6  dxy    Ryd( 3d)     0.00290       1.82651
   249    C    6  dxy    Ryd( 5d)     0.00026       4.00580
   250    C    6  dxy    Ryd( 4d)     0.00006       2.91778
   251    C    6  dxz    Ryd( 3d)     0.00121       1.19874
   252    C    6  dxz    Ryd( 5d)     0.00060       3.06092
   253    C    6  dxz    Ryd( 4d)     0.00002       2.05308
   254    C    6  dyz    Ryd( 3d)     0.00086       1.10537
   255    C    6  dyz    Ryd( 5d)     0.00025       3.02376
   256    C    6  dyz    Ryd( 4d)     0.00004       2.37852
   257    C    6  dx2y2  Ryd( 3d)     0.00134       1.92210
   258    C    6  dx2y2  Ryd( 5d)     0.00040       3.95585
   259    C    6  dx2y2  Ryd( 4d)     0.00008       3.12368
   260    C    6  dz2    Ryd( 3d)     0.00097       1.74933
   261    C    6  dz2    Ryd( 5d)     0.00027       4.34658
   262    C    6  dz2    Ryd( 4d)     0.00004       3.33897
   263    C    6  f(0)   Ryd( 5f)     0.00013       3.12916
   264    C    6  f(0)   Ryd( 4f)     0.00004       2.46271
   265    C    6  f(C1)  Ryd( 5f)     0.00017       3.43806
   266    C    6  f(C1)  Ryd( 4f)     0.00003       3.27294
   267    C    6  f(S1)  Ryd( 5f)     0.00011       3.58654
   268    C    6  f(S1)  Ryd( 4f)     0.00004       3.33867
   269    C    6  f(C2)  Ryd( 5f)     0.00002       3.40049
   270    C    6  f(C2)  Ryd( 4f)     0.00001       2.77916
   271    C    6  f(S2)  Ryd( 5f)     0.00001       3.27127
   272    C    6  f(S2)  Ryd( 4f)     0.00001       2.52326
   273    C    6  f(C3)  Ryd( 4f)     0.00004       4.18843
   274    C    6  f(C3)  Ryd( 5f)     0.00004       4.57297
   275    C    6  f(S3)  Ryd( 4f)     0.00011       4.24506
   276    C    6  f(S3)  Ryd( 5f)     0.00003       5.17294
 
   277    C    7  S      Cor( 1S)     1.99909     -10.54650
   278    C    7  S      Val( 2S)     0.77523      -0.10929
   279    C    7  S      Ryd( 4S)     0.00428       1.90606
   280    C    7  S      Ryd( 5S)     0.00017       2.21662
   281    C    7  S      Ryd( 3S)     0.00014       1.64568
   282    C    7  px     Val( 2p)     0.89026      -0.04911
   283    C    7  px     Ryd( 5p)     0.00468       1.64617
   284    C    7  px     Ryd( 3p)     0.00025       0.98359
   285    C    7  px     Ryd( 4p)     0.00003       1.49433
   286    C    7  py     Val( 2p)     0.75024      -0.02247
   287    C    7  py     Ryd( 4p)     0.01324       1.61704
   288    C    7  py     Ryd( 3p)     0.00010       1.00101
   289    C    7  py     Ryd( 5p)     0.00007       2.26138
   290    C    7  pz     Val( 2p)     0.77071      -0.12874
   291    C    7  pz     Ryd( 4p)     0.00054       1.17999
   292    C    7  pz     Ryd( 3p)     0.00016       0.61697
   293    C    7  pz     Ryd( 5p)     0.00002       1.18392
   294    C    7  dxy    Ryd( 4d)     0.00115       4.21120
   295    C    7  dxy    Ryd( 3d)     0.00006       2.11576
   296    C    7  dxy    Ryd( 5d)     0.00006       4.31904
   297    C    7  dxz    Ryd( 5d)     0.00071       3.29738
   298    C    7  dxz    Ryd( 3d)     0.00015       0.94979
   299    C    7  dxz    Ryd( 4d)     0.00007       2.79413
   300    C    7  dyz    Ryd( 5d)     0.00133       3.38857
   301    C    7  dyz    Ryd( 3d)     0.00008       1.15286
   302    C    7  dyz    Ryd( 4d)     0.00003       2.92180
   303    C    7  dx2y2  Ryd( 4d)     0.00122       4.22933
   304    C    7  dx2y2  Ryd( 3d)     0.00005       1.97491
   305    C    7  dx2y2  Ryd( 5d)     0.00005       4.34028
   306    C    7  dz2    Ryd( 5d)     0.00019       4.55410
   307    C    7  dz2    Ryd( 3d)     0.00018       2.40104
   308    C    7  dz2    Ryd( 4d)     0.00013       3.74447
   309    C    7  f(0)   Ryd( 5f)     0.00013       3.43918
   310    C    7  f(0)   Ryd( 4f)     0.00004       2.53191
   311    C    7  f(C1)  Ryd( 5f)     0.00015       3.68650
   312    C    7  f(C1)  Ryd( 4f)     0.00003       3.30302
   313    C    7  f(S1)  Ryd( 5f)     0.00005       3.57711
   314    C    7  f(S1)  Ryd( 4f)     0.00004       3.46032
   315    C    7  f(C2)  Ryd( 5f)     0.00001       3.43897
   316    C    7  f(C2)  Ryd( 4f)     0.00012       2.72109
   317    C    7  f(S2)  Ryd( 5f)     0.00002       3.56534
   318    C    7  f(S2)  Ryd( 4f)     0.00001       2.96389
   319    C    7  f(C3)  Ryd( 4f)     0.00014       4.57578
   320    C    7  f(C3)  Ryd( 5f)     0.00002       7.02286
   321    C    7  f(S3)  Ryd( 4f)     0.00008       4.53498
   322    C    7  f(S3)  Ryd( 5f)     0.00003       5.79717
 
   323    O    8  S      Cor( 1S)     1.99979     -19.33043
   324    O    8  S      Val( 2S)     1.70835      -1.00188
   325    O    8  S      Ryd( 4S)     0.00071       3.16545
   326    O    8  S      Ryd( 3S)     0.00014       1.47603
   327    O    8  S      Ryd( 5S)     0.00001       8.76105
   328    O    8  px     Val( 2p)     1.83004      -0.34292
   329    O    8  px     Ryd( 4p)     0.00140       1.19168
   330    O    8  px     Ryd( 3p)     0.00011       0.60559
   331    O    8  px     Ryd( 5p)     0.00003       4.72044
   332    O    8  py     Val( 2p)     1.57421      -0.33512
   333    O    8  py     Ryd( 4p)     0.00116       1.40680
   334    O    8  py     Ryd( 3p)     0.00013       0.58199
   335    O    8  py     Ryd( 5p)     0.00006       5.64849
   336    O    8  pz     Val( 2p)     1.48906      -0.29579
   337    O    8  pz     Ryd( 4p)     0.00106       0.88612
   338    O    8  pz     Ryd( 3p)     0.00003       0.48752
   339    O    8  pz     Ryd( 5p)     0.00000       4.21653
   340    O    8  dxy    Ryd( 3d)     0.00683       1.97737
   341    O    8  dxy    Ryd( 4d)     0.00008       2.79119
   342    O    8  dxy    Ryd( 5d)     0.00004       6.60763
   343    O    8  dxz    Ryd( 3d)     0.00115       1.35576
   344    O    8  dxz    Ryd( 4d)     0.00005       1.78190
   345    O    8  dxz    Ryd( 5d)     0.00001       6.48010
   346    O    8  dyz    Ryd( 3d)     0.00602       1.52791
   347    O    8  dyz    Ryd( 4d)     0.00003       1.79537
   348    O    8  dyz    Ryd( 5d)     0.00003       6.45645
   349    O    8  dx2y2  Ryd( 3d)     0.00743       1.89298
   350    O    8  dx2y2  Ryd( 4d)     0.00008       2.57245
   351    O    8  dx2y2  Ryd( 5d)     0.00004       6.56427
   352    O    8  dz2    Ryd( 3d)     0.00301       1.57492
   353    O    8  dz2    Ryd( 4d)     0.00008       2.37034
   354    O    8  dz2    Ryd( 5d)     0.00000       6.54132
   355    O    8  f(0)   Ryd( 4f)     0.00014       3.04839
   356    O    8  f(0)   Ryd( 5f)     0.00000       5.61481
   357    O    8  f(C1)  Ryd( 4f)     0.00005       3.13172
   358    O    8  f(C1)  Ryd( 5f)     0.00001       5.65265
   359    O    8  f(S1)  Ryd( 4f)     0.00014       3.57254
   360    O    8  f(S1)  Ryd( 5f)     0.00001       5.88673
   361    O    8  f(C2)  Ryd( 4f)     0.00024       3.08019
   362    O    8  f(C2)  Ryd( 5f)     0.00002       5.76524
   363    O    8  f(S2)  Ryd( 4f)     0.00016       3.02770
   364    O    8  f(S2)  Ryd( 5f)     0.00001       5.76209
   365    O    8  f(C3)  Ryd( 4f)     0.00045       3.80422
   366    O    8  f(C3)  Ryd( 5f)     0.00001       6.11554
   367    O    8  f(S3)  Ryd( 4f)     0.00037       3.63391
   368    O    8  f(S3)  Ryd( 5f)     0.00003       6.06814
 
   369    O    9  S      Cor( 1S)     1.99978     -19.46285
   370    O    9  S      Val( 2S)     1.67382      -1.03159
   371    O    9  S      Ryd( 3S)     0.00049       1.45063
   372    O    9  S      Ryd( 4S)     0.00013       2.20047
   373    O    9  S      Ryd( 5S)     0.00001      10.15993
   374    O    9  px     Val( 2p)     1.43179      -0.35419
   375    O    9  px     Ryd( 4p)     0.00083       1.15996
   376    O    9  px     Ryd( 3p)     0.00007       0.64284
   377    O    9  px     Ryd( 5p)     0.00005       5.25060
   378    O    9  py     Val( 2p)     1.71983      -0.40523
   379    O    9  py     Ryd( 4p)     0.00075       0.95486
   380    O    9  py     Ryd( 3p)     0.00012       0.62245
   381    O    9  py     Ryd( 5p)     0.00008       4.90297
   382    O    9  pz     Val( 2p)     1.85192      -0.41331
   383    O    9  pz     Ryd( 4p)     0.00144       0.75673
   384    O    9  pz     Ryd( 3p)     0.00008       0.56981
   385    O    9  pz     Ryd( 5p)     0.00001       4.08983
   386    O    9  dxy    Ryd( 3d)     0.00728       2.01332
   387    O    9  dxy    Ryd( 4d)     0.00017       2.49844
   388    O    9  dxy    Ryd( 5d)     0.00004       6.87853
   389    O    9  dxz    Ryd( 3d)     0.00037       1.19153
   390    O    9  dxz    Ryd( 4d)     0.00008       1.90976
   391    O    9  dxz    Ryd( 5d)     0.00002       6.51121
   392    O    9  dyz    Ryd( 3d)     0.00520       1.24534
   393    O    9  dyz    Ryd( 4d)     0.00001       1.71052
   394    O    9  dyz    Ryd( 5d)     0.00004       6.49245
   395    O    9  dx2y2  Ryd( 3d)     0.00299       1.66693
   396    O    9  dx2y2  Ryd( 4d)     0.00010       2.14164
   397    O    9  dx2y2  Ryd( 5d)     0.00006       6.80463
   398    O    9  dz2    Ryd( 3d)     0.00324       1.43512
   399    O    9  dz2    Ryd( 4d)     0.00013       2.30283
   400    O    9  dz2    Ryd( 5d)     0.00001       6.72050
   401    O    9  f(0)   Ryd( 4f)     0.00055       2.74986
   402    O    9  f(0)   Ryd( 5f)     0.00001       5.93037
   403    O    9  f(C1)  Ryd( 4f)     0.00027       3.48626
   404    O    9  f(C1)  Ryd( 5f)     0.00001       6.21276
   405    O    9  f(S1)  Ryd( 4f)     0.00013       3.12437
   406    O    9  f(S1)  Ryd( 5f)     0.00001       6.07697
   407    O    9  f(C2)  Ryd( 4f)     0.00010       2.78285
   408    O    9  f(C2)  Ryd( 5f)     0.00001       6.10744
   409    O    9  f(S2)  Ryd( 4f)     0.00007       2.87178
   410    O    9  f(S2)  Ryd( 5f)     0.00001       5.96190
   411    O    9  f(C3)  Ryd( 4f)     0.00004       3.97331
   412    O    9  f(C3)  Ryd( 5f)     0.00003       6.47695
   413    O    9  f(S3)  Ryd( 4f)     0.00015       4.12868
   414    O    9  f(S3)  Ryd( 5f)     0.00004       6.49485
 
   415    H   10  S      Val( 1S)     0.77317       0.01086
   416    H   10  S      Ryd( 4S)     0.00026       1.87874
   417    H   10  S      Ryd( 2S)     0.00011       0.41305
   418    H   10  S      Ryd( 3S)     0.00002       1.39302
   419    H   10  px     Ryd( 2p)     0.00027       1.11635
   420    H   10  px     Ryd( 4p)     0.00009       3.77105
   421    H   10  px     Ryd( 3p)     0.00002       2.19267
   422    H   10  py     Ryd( 2p)     0.00033       1.03639
   423    H   10  py     Ryd( 4p)     0.00003       3.84887
   424    H   10  py     Ryd( 3p)     0.00003       2.10951
   425    H   10  pz     Ryd( 2p)     0.00061       1.12187
   426    H   10  pz     Ryd( 4p)     0.00008       3.90184
   427    H   10  pz     Ryd( 3p)     0.00002       3.20507
   428    H   10  dxy    Ryd( 3d)     0.00002       2.45556
   429    H   10  dxy    Ryd( 4d)     0.00001       3.20389
   430    H   10  dxz    Ryd( 3d)     0.00007       2.44298
   431    H   10  dxz    Ryd( 4d)     0.00001       3.72290
   432    H   10  dyz    Ryd( 3d)     0.00006       2.33414
   433    H   10  dyz    Ryd( 4d)     0.00001       3.61272
   434    H   10  dx2y2  Ryd( 3d)     0.00003       2.38867
   435    H   10  dx2y2  Ryd( 4d)     0.00002       3.20176
   436    H   10  dz2    Ryd( 3d)     0.00005       2.45185
   437    H   10  dz2    Ryd( 4d)     0.00001       3.75299
 
   438    H   11  S      Val( 1S)     0.79195      -0.00756
   439    H   11  S      Ryd( 4S)     0.00026       1.81682
   440    H   11  S      Ryd( 2S)     0.00015       0.52520
   441    H   11  S      Ryd( 3S)     0.00003       1.38920
   442    H   11  px     Ryd( 2p)     0.00076       1.25646
   443    H   11  px     Ryd( 4p)     0.00009       4.16425
   444    H   11  px     Ryd( 3p)     0.00001       3.33868
   445    H   11  py     Ryd( 2p)     0.00044       1.06963
   446    H   11  py     Ryd( 4p)     0.00005       3.95915
   447    H   11  py     Ryd( 3p)     0.00002       2.03258
   448    H   11  pz     Ryd( 2p)     0.00013       0.88483
   449    H   11  pz     Ryd( 4p)     0.00005       3.74326
   450    H   11  pz     Ryd( 3p)     0.00002       1.80631
   451    H   11  dxy    Ryd( 3d)     0.00006       2.13134
   452    H   11  dxy    Ryd( 4d)     0.00002       4.13100
   453    H   11  dxz    Ryd( 3d)     0.00001       1.91448
   454    H   11  dxz    Ryd( 4d)     0.00002       3.86033
   455    H   11  dyz    Ryd( 3d)     0.00002       1.83015
   456    H   11  dyz    Ryd( 4d)     0.00001       3.29594
   457    H   11  dx2y2  Ryd( 3d)     0.00009       2.24754
   458    H   11  dx2y2  Ryd( 4d)     0.00002       4.16452
   459    H   11  dz2    Ryd( 3d)     0.00009       1.95825
   460    H   11  dz2    Ryd( 4d)     0.00001       3.56398
 
   461    H   12  S      Val( 1S)     0.77330       0.01073
   462    H   12  S      Ryd( 4S)     0.00026       1.87929
   463    H   12  S      Ryd( 2S)     0.00011       0.41238
   464    H   12  S      Ryd( 3S)     0.00002       1.39405
   465    H   12  px     Ryd( 2p)     0.00026       1.11521
   466    H   12  px     Ryd( 4p)     0.00009       3.77060
   467    H   12  px     Ryd( 3p)     0.00002       2.18643
   468    H   12  py     Ryd( 2p)     0.00033       1.03671
   469    H   12  py     Ryd( 4p)     0.00003       3.84918
   470    H   12  py     Ryd( 3p)     0.00003       2.10719
   471    H   12  pz     Ryd( 2p)     0.00061       1.12294
   472    H   12  pz     Ryd( 4p)     0.00008       3.90541
   473    H   12  pz     Ryd( 3p)     0.00002       3.20523
   474    H   12  dxy    Ryd( 3d)     0.00002       2.45490
   475    H   12  dxy    Ryd( 4d)     0.00001       3.20109
   476    H   12  dxz    Ryd( 3d)     0.00007       2.44172
   477    H   12  dxz    Ryd( 4d)     0.00001       3.72131
   478    H   12  dyz    Ryd( 3d)     0.00006       2.33407
   479    H   12  dyz    Ryd( 4d)     0.00001       3.61536
   480    H   12  dx2y2  Ryd( 3d)     0.00003       2.38772
   481    H   12  dx2y2  Ryd( 4d)     0.00002       3.19923
   482    H   12  dz2    Ryd( 3d)     0.00005       2.45259
   483    H   12  dz2    Ryd( 4d)     0.00001       3.75658
 
   484    H   13  S      Val( 1S)     0.79179       0.03738
   485    H   13  S      Ryd( 4S)     0.00029       1.83041
   486    H   13  S      Ryd( 2S)     0.00009       0.44056
   487    H   13  S      Ryd( 3S)     0.00004       1.60014
   488    H   13  px     Ryd( 2p)     0.00093       0.85834
   489    H   13  px     Ryd( 4p)     0.00010       4.16218
   490    H   13  px     Ryd( 3p)     0.00003       2.64348
   491    H   13  py     Ryd( 2p)     0.00103       0.81425
   492    H   13  py     Ryd( 4p)     0.00019       4.44728
   493    H   13  py     Ryd( 3p)     0.00003       3.54676
   494    H   13  pz     Ryd( 2p)     0.00072       0.55303
   495    H   13  pz     Ryd( 4p)     0.00004       3.93609
   496    H   13  pz     Ryd( 3p)     0.00003       1.75433
   497    H   13  dxy    Ryd( 3d)     0.00012       2.01554
   498    H   13  dxy    Ryd( 4d)     0.00003       4.33131
   499    H   13  dxz    Ryd( 3d)     0.00009       1.57911
   500    H   13  dxz    Ryd( 4d)     0.00001       3.55298
   501    H   13  dyz    Ryd( 3d)     0.00002       1.73716
   502    H   13  dyz    Ryd( 4d)     0.00001       3.86150
   503    H   13  dx2y2  Ryd( 3d)     0.00008       2.12172
   504    H   13  dx2y2  Ryd( 4d)     0.00004       4.32357
   505    H   13  dz2    Ryd( 3d)     0.00007       1.88768
   506    H   13  dz2    Ryd( 4d)     0.00004       3.82622
 
   507    H   14  S      Val( 1S)     0.80199      -0.01024
   508    H   14  S      Ryd( 4S)     0.00021       1.75282
   509    H   14  S      Ryd( 2S)     0.00012       0.58427
   510    H   14  S      Ryd( 3S)     0.00004       1.45383
   511    H   14  px     Ryd( 2p)     0.00062       0.70377
   512    H   14  px     Ryd( 4p)     0.00030       4.40231
   513    H   14  px     Ryd( 3p)     0.00002       3.72872
   514    H   14  py     Ryd( 2p)     0.00047       0.89524
   515    H   14  py     Ryd( 4p)     0.00007       4.06176
   516    H   14  py     Ryd( 3p)     0.00003       2.20675
   517    H   14  pz     Ryd( 2p)     0.00138       0.54771
   518    H   14  pz     Ryd( 4p)     0.00001       3.94841
   519    H   14  pz     Ryd( 3p)     0.00001       1.65450
   520    H   14  dxy    Ryd( 3d)     0.00006       1.98036
   521    H   14  dxy    Ryd( 4d)     0.00002       4.45067
   522    H   14  dxz    Ryd( 3d)     0.00002       1.60831
   523    H   14  dxz    Ryd( 4d)     0.00002       4.04509
   524    H   14  dyz    Ryd( 3d)     0.00003       1.35216
   525    H   14  dyz    Ryd( 4d)     0.00001       3.64632
   526    H   14  dx2y2  Ryd( 3d)     0.00010       1.85172
   527    H   14  dx2y2  Ryd( 4d)     0.00006       4.47126
   528    H   14  dz2    Ryd( 3d)     0.00012       1.63073
   529    H   14  dz2    Ryd( 4d)     0.00004       3.89990
 
   530    H   15  S      Val( 1S)     0.49247       0.13213
   531    H   15  S      Ryd( 4S)     0.00092       1.83705
   532    H   15  S      Ryd( 3S)     0.00021       1.47221
   533    H   15  S      Ryd( 2S)     0.00011       0.58304
   534    H   15  px     Ryd( 2p)     0.00040       1.93704
   535    H   15  px     Ryd( 4p)     0.00032       4.30618
   536    H   15  px     Ryd( 3p)     0.00001       3.16665
   537    H   15  py     Ryd( 2p)     0.00031       1.52218
   538    H   15  py     Ryd( 4p)     0.00008       3.63868
   539    H   15  py     Ryd( 3p)     0.00001       2.74164
   540    H   15  pz     Ryd( 2p)     0.00071       1.18519
   541    H   15  pz     Ryd( 4p)     0.00005       3.33120
   542    H   15  pz     Ryd( 3p)     0.00002       2.47341
   543    H   15  dxy    Ryd( 3d)     0.00006       1.56749
   544    H   15  dxy    Ryd( 4d)     0.00000       4.43683
   545    H   15  dxz    Ryd( 3d)     0.00016       1.14597
   546    H   15  dxz    Ryd( 4d)     0.00000       4.19546
   547    H   15  dyz    Ryd( 3d)     0.00002       1.13650
   548    H   15  dyz    Ryd( 4d)     0.00000       3.82059
   549    H   15  dx2y2  Ryd( 3d)     0.00009       1.55609
   550    H   15  dx2y2  Ryd( 4d)     0.00001       4.50363
   551    H   15  dz2    Ryd( 3d)     0.00009       1.63443
   552    H   15  dz2    Ryd( 4d)     0.00000       4.01942

 WARNING:  1 low occupancy (<1.9990e) core orbital  found on  C    3

 WARNING:  Population inversion found on atom  C    1
           Population inversion found on atom  N    2
           Population inversion found on atom  C    3
           Population inversion found on atom  C    4
           Population inversion found on atom  N    5
           Population inversion found on atom  C    6
           Population inversion found on atom  C    7
           Population inversion found on atom  O    8
           Population inversion found on atom  O    9
           Population inversion found on atom  H   10
           Population inversion found on atom  H   11
           Population inversion found on atom  H   12
           Population inversion found on atom  H   13
           Population inversion found on atom  H   14
           Population inversion found on atom  H   15


 Summary of Natural Population Analysis:                  
                                                          
                                       Natural Population 
                Natural  -----------------------------------------------
    Atom  No    Charge         Core      Valence    Rydberg      Total
 -----------------------------------------------------------------------
      C    1   -0.38208      1.99944     4.36897    0.01366     6.38208
      N    2   -0.28605      1.99910     5.25655    0.03040     7.28605
      C    3   -0.11196      1.99878     4.08102    0.03216     6.11196
      C    4    0.03323      1.99920     3.94058    0.02699     5.96677
      N    5   -0.46291      1.99941     5.41772    0.04578     7.46291
      C    6    0.20315      1.99925     3.76754    0.03006     5.79685
      C    7    0.78444      1.99909     3.18644    0.03003     5.21556
      O    8   -0.63281      1.99979     6.60165    0.03136     8.63281
      O    9   -0.70238      1.99978     6.67737    0.02524     8.70238
      H   10    0.22469      0.00000     0.77317    0.00214     0.77531
      H   11    0.20570      0.00000     0.79195    0.00235     0.79430
      H   12    0.22456      0.00000     0.77330    0.00214     0.77544
      H   13    0.20421      0.00000     0.79179    0.00400     0.79579
      H   14    0.19428      0.00000     0.80199    0.00373     0.80572
      H   15    0.50395      0.00000     0.49247    0.00357     0.49605
 =======================================================================
   * Total *    0.00000     17.99385    47.72253    0.28362    66.00000

                                 Natural Population      
 --------------------------------------------------------
   Core                      17.99385 ( 99.9658% of  18)
   Valence                   47.72253 ( 99.4219% of  48)
   Natural Minimal Basis     65.71638 ( 99.5703% of  66)
   Natural Rydberg Basis      0.28362 (  0.4297% of  66)
 --------------------------------------------------------

    Atom  No          Natural Electron Configuration
 ----------------------------------------------------------------------------
      C    1      [core]2S( 1.09)2p( 3.27)4d( 0.01)
      N    2      [core]2S( 1.15)2p( 4.11)4p( 0.01)4f( 0.01)
      C    3      [core]2S( 0.83)2p( 3.25)4p( 0.01)4f( 0.01)
      C    4      [core]2S( 0.92)2p( 3.02)3d( 0.01)5p( 0.01)
      N    5      [core]2S( 1.35)2p( 4.07)3d( 0.03)4p( 0.01)
      C    6      [core]2S( 0.86)2p( 2.91)3d( 0.01)4p( 0.01)
      C    7      [core]2S( 0.78)2p( 2.41)4p( 0.01)
      O    8      [core]2S( 1.71)2p( 4.89)3d( 0.02)
      O    9      [core]2S( 1.67)2p( 5.00)3d( 0.02)
      H   10            1S( 0.77)
      H   11            1S( 0.79)
      H   12            1S( 0.77)
      H   13            1S( 0.79)
      H   14            1S( 0.80)
      H   15            1S( 0.49)


 NATURAL BOND ORBITAL ANALYSIS:

                       Occupancies       Lewis Structure    Low   High
           Occ.    -------------------  -----------------   occ   occ
  Cycle   Thresh.   Lewis   Non-Lewis     CR  BD  3C  LP    (L)   (NL)   Dev
 =============================================================================
   1(1)    1.90    62.89792   3.10208      9  17   0   7     8      4    0.43
   2(2)    1.90    62.89792   3.10208      9  17   0   7     8      4    0.43
   3(1)    1.80    63.39031   2.60969      9  17   0   7     2      3    0.43
   4(2)    1.80    63.63224   2.36776      9  17   0   7     2      3    0.43
   5(3)    1.80    63.39031   2.60969      9  17   0   7     2      3    0.43
   6(4)    1.80    63.63224   2.36776      9  17   0   7     2      3    0.43
   7(1)    1.70    64.33560   1.66440      9  18   0   6     1      3    0.43
   8(2)    1.70    64.17233   1.82767      9  18   0   6     1      3    0.43
   9(3)    1.70    64.33560   1.66440      9  18   0   6     1      3    0.43
  10(1)    1.60    64.33560   1.66440      9  18   0   6     1      3    0.43
  11(2)    1.60    64.17233   1.82767      9  18   0   6     1      3    0.43
  12(3)    1.60    64.33560   1.66440      9  18   0   6     1      3    0.43
  13(1)    1.50    63.26791   2.73209      9  18   0   6     0      5    0.73
  14(2)    1.50    63.26791   2.73209      9  18   0   6     0      5    0.73
  15(1)    1.70    64.33560   1.66440      9  18   0   6     1      3    0.43
 -----------------------------------------------------------------------------

 Structure accepted: RESONANCE keyword permits strongly delocalized structure

 WARNING:  1 low occupancy (<1.9990e) core orbital  found on  C    3

 --------------------------------------------------------
   Core                     17.99386 ( 99.966% of  18)
   Valence Lewis            46.34173 ( 96.545% of  48)
  ==================       ============================
   Total Lewis              64.33560 ( 97.478% of  66)
  -----------------------------------------------------
   Valence non-Lewis         1.52368 (  2.309% of  66)
   Rydberg non-Lewis         0.14073 (  0.213% of  66)
  ==================       ============================
   Total non-Lewis           1.66440 (  2.522% of  66)
 --------------------------------------------------------


       (Occupancy)   Bond orbital/ Coefficients/ Hybrids
 ---------------------------------------------------------------------------------
     1. (1.98509) BD ( 1) C   1 - N   2  
                ( 35.55%)   0.5963* C   1 s( 24.66%)p 3.05( 75.23%)d 0.00(  0.10%)
                                                  f 0.00(  0.01%)
                                            0.0002  0.4958 -0.0271  0.0008 -0.0014
                                            0.0139 -0.0027 -0.0007 -0.0007 -0.8665
                                           -0.0366  0.0064  0.0024  0.0001  0.0000
                                            0.0000  0.0000  0.0021 -0.0018 -0.0001
                                            0.0000  0.0000  0.0000  0.0000  0.0000
                                            0.0000 -0.0254 -0.0089 -0.0019 -0.0143
                                           -0.0061 -0.0023  0.0000  0.0000  0.0031
                                            0.0011  0.0006 -0.0059  0.0000  0.0000
                                            0.0000  0.0000 -0.0008 -0.0010 -0.0006
                                           -0.0053
                ( 64.45%)   0.8028* N   2 s( 28.64%)p 2.49( 71.23%)d 0.00(  0.02%)
                                                  f 0.00(  0.10%)
                                           -0.0001  0.5351 -0.0079  0.0017  0.0000
                                           -0.0055 -0.0008 -0.0017 -0.0004  0.8439
                                            0.0110 -0.0025 -0.0015 -0.0001  0.0000
                                            0.0000  0.0000  0.0001 -0.0004  0.0007
                                            0.0000  0.0000  0.0000  0.0000  0.0000
                                            0.0000 -0.0069 -0.0065  0.0002 -0.0092
                                           -0.0010 -0.0015  0.0000  0.0000  0.0024
                                           -0.0005 -0.0266 -0.0054  0.0000  0.0000
                                            0.0000  0.0000  0.0007  0.0007 -0.0169
                                           -0.0028
     2. (1.98881) BD ( 1) C   1 - H  10  
                ( 61.38%)   0.7834* C   1 s( 25.40%)p 2.93( 74.46%)d 0.01(  0.14%)
                                                  f 0.00(  0.01%)
                                           -0.0001  0.5039  0.0049 -0.0002  0.0003
                                            0.4001 -0.0032 -0.0012  0.0003  0.2939
                                            0.0082  0.0029 -0.0004 -0.7056  0.0098
                                           -0.0024 -0.0006  0.0046  0.0003 -0.0014
                                           -0.0252  0.0004 -0.0002 -0.0155  0.0016
                                            0.0010  0.0007  0.0021  0.0000  0.0220
                                           -0.0005 -0.0004 -0.0001 -0.0014  0.0060
                                           -0.0001  0.0044 -0.0012  0.0008 -0.0022
                                           -0.0026  0.0016 -0.0017  0.0003  0.0018
                                            0.0003
                ( 38.62%)   0.6215* H  10 s( 99.90%)p 0.00(  0.09%)d 0.00(  0.02%)
                                            0.9995  0.0009  0.0003 -0.0001  0.0070
                                           -0.0058  0.0006  0.0112 -0.0043 -0.0005
                                           -0.0239  0.0070 -0.0018 -0.0032  0.0007
                                            0.0087 -0.0001  0.0074 -0.0014 -0.0003
                                           -0.0015 -0.0059 -0.0001
     3. (1.99191) BD ( 1) C   1 - H  11  
                ( 60.37%)   0.7770* C   1 s( 24.61%)p 3.06( 75.23%)d 0.01(  0.16%)
                                                  f 0.00(  0.01%)
                                            0.0001 -0.4960 -0.0061 -0.0005 -0.0002
                                            0.8243 -0.0115 -0.0010  0.0007 -0.2695
                                           -0.0103 -0.0020  0.0006  0.0015  0.0000
[...]
 ! D24   D(13,4,5,6)           179.9995         -DE/DX =    0.0                 !
 ! D25   D(4,5,6,2)             -0.0012         -DE/DX =    0.0                 !
 ! D26   D(4,5,6,14)           179.9984         -DE/DX =    0.0                 !
 ! D27   D(3,7,9,15)           179.9544         -DE/DX =    0.0001              !
 ! D28   D(8,7,9,15)             0.0445         -DE/DX =   -0.0001              !
 --------------------------------------------------------------------------------
 GradGradGradGradGradGradGradGradGradGradGradGradGradGradGradGradGradGrad


 ----------------------------------------------------------------------

 Electric dipole moment (input orientation):
 (Debye = 10**-18 statcoulomb cm , SI units = C m)
                  (au)            (Debye)         (10**-30 SI)
   Tot        0.814605D+00      0.207052D+01      0.690651D+01
   x         -0.674723D-01     -0.171498D+00     -0.572054D+00
   y          0.551482D+00      0.140173D+01      0.467566D+01
   z          0.595731D+00      0.151420D+01      0.505082D+01

 Dipole polarizability, Alpha (input orientation).
 (esu units = cm**3 , SI units = C**2 m**2 J**-1)
 Alpha(0;0):
               (au)            (10**-24 esu)      (10**-40 SI)
   iso        0.800370D+02      0.118603D+02      0.131963D+02
   aniso      0.461361D+02      0.683667D+01      0.760682D+01
   xx         0.504432D+02      0.747492D+01      0.831697D+01
   yx        -0.131149D+01     -0.194343D+00     -0.216236D+00
   yy         0.905722D+02      0.134214D+02      0.149333D+02
   zx        -0.350017D+01     -0.518672D+00     -0.577100D+00
   zy        -0.453216D+01     -0.671597D+00     -0.747252D+00
   zz         0.990954D+02      0.146844D+02      0.163386D+02

 ----------------------------------------------------------------------

 Dipole orientation:
     6         -2.18137813          3.02884603          1.95793072
     7         -2.18032855          2.90595302         -0.78551760
     6         -2.15661985          0.78392390         -2.29509924
     6         -2.16686013          1.66462602         -4.74069240
     7         -2.19592451          4.22464659         -4.76939129
     6         -2.20311548          4.89402107         -2.37181558
     6         -2.12783804         -1.77204995         -1.28820592
     8         -2.12012991         -2.32443432          0.92345434
     8         -2.10623468         -3.51749303         -3.13641917
     1         -0.50503812          2.11425855          2.71120038
     1         -2.20341128          5.01097142          2.49580506
     1         -3.83672862          2.07710294          2.71159027
     1         -2.15452194          0.55095536         -6.44366806
     1         -2.22469345          6.80941654         -1.67600800
     1         -2.08657411         -5.15147143         -2.32247597

 Electric dipole moment (dipole orientation):
 (Debye = 10**-18 statcoulomb cm , SI units = C m)
                  (au)            (Debye)         (10**-30 SI)
   Tot        0.814605D+00      0.207052D+01      0.690651D+01
   x          0.000000D+00      0.000000D+00      0.000000D+00
   y          0.000000D+00      0.000000D+00      0.000000D+00
   z          0.814605D+00      0.207052D+01      0.690651D+01

 Dipole polarizability, Alpha (dipole orientation).
 (esu units = cm**3 , SI units = C**2 m**2 J**-1)
 Alpha(0;0):
               (au)            (10**-24 esu)      (10**-40 SI)
   iso        0.800370D+02      0.118603D+02      0.131963D+02
   aniso      0.461361D+02      0.683667D+01      0.760682D+01
   xx         0.501326D+02      0.742889D+01      0.826576D+01
   yx        -0.560180D+00     -0.830101D-01     -0.923612D-01
   yy         0.990395D+02      0.146761D+02      0.163294D+02
   zx         0.590385D-01      0.874861D-02      0.973414D-02
   zy        -0.470002D+01     -0.696471D+00     -0.774929D+00
   zz         0.909387D+02      0.134757D+02      0.149938D+02

 ----------------------------------------------------------------------
 Unable to Open any file for archive entry.
 1\1\GINC-AE14\Freq\RM062X\Aug-CC-pVTZ\C5H6N2O2\DHUANG\04-Mar-2025\0\\#
 N Geom=AllCheck Guess=TCheck SCRF=Check GenChk RM062X/Aug-CC-pVTZ Freq
 \\16\\0,1\C,-1.1836673883,1.8425384739,-0.4229862796\N,-1.0649727926,0
 .8119007112,-1.440612916\C,-1.0226798886,-0.5541629241,-1.2635573138\C
 ,-0.9057904523,-1.0877975952,-2.5259480454\N,-0.8759753002,-0.10249542
 49,-3.455454518\C,-0.9733807986,1.0167595435,-2.7677245542\C,-1.095449
 717,-1.1874576746,0.0430427539\O,-1.1977932429,-0.6099271861,1.0971720
 984\O,-1.0329696299,-2.5283456779,-0.0459542257\H,-0.3487932992,1.7852
 699935,0.2696507907\H,-1.1848842154,2.806081795,-0.925893229\H,-2.1055
 155822,1.7138504792,0.1370818438\H,-0.8437317167,-2.1309959548,-2.7854
 771894\H,-0.9824237461,2.0109261525,-3.1855863138\H,-1.0862877199,-2.8
 721806613,0.8552709782\\Version=ES64L-G16RevC.01\State=1-A\HF=-454.112
 7944\RMSD=2.528e-09\RMSF=9.846e-05\ZeroPoint=0.1161808\Thermal=0.12390
 31\ETot=-453.9888913\HTot=-453.9879471\GTot=-454.0292143\Dipole=-0.067
 4723,0.5514821,0.5957312\DipoleDeriv=0.1929103,-0.0236627,-0.0185904,-
 0.0231093,0.4042081,0.1909838,-0.0188843,0.1985272,0.3333015,-0.122464
 5,0.0385528,0.0411524,0.0478021,-0.3091957,-0.5313418,0.0360945,-0.409
 6829,-0.3750145,-0.0390634,-0.0316138,0.0447887,-0.0398382,0.0413683,0
 .4874833,0.0491641,0.3775757,-0.8943915,-0.050476,0.0061756,-0.0346897
 ,-0.002216,0.234139,-0.1262306,-0.0302377,-0.2382994,0.4776764,-0.3165
 407,0.020367,0.0129488,0.0047283,-0.7466635,0.171549,0.0214405,-0.0364
 247,-0.5799141,0.027726,-0.0438562,-0.0258003,-0.0208681,0.3287166,0.1
 121866,-0.0383071,0.4175909,0.3060694,0.3658019,-0.0487913,-0.1218307,
 -0.0435997,1.9372222,-0.2858112,-0.1248741,-0.2204101,2.1308914,-0.375
 1044,0.0275873,0.0852087,0.0292918,-0.7924182,-0.1560776,0.0851036,-0.
 1366655,-1.4210664,-0.3629489,0.0341026,-0.0032202,0.0273718,-1.493179
 9,0.2543059,0.0001535,0.1733438,-0.4584875,-0.0060127,0.0073998,-0.059
 0696,0.046792,0.0337491,-0.0189209,-0.0283769,-0.0704757,0.0056634,0.0
 908581,-0.0017358,0.0060775,0.005311,-0.052604,0.0071954,0.0022709,0.1
 006845,0.0069194,-0.0152053,-0.0003204,0.0573047,-0.0472021,0.0295613,
 -0.0212389,0.0306164,-0.0686217,0.0189103,0.1397276,0.0064047,0.002506
 ,0.0045777,0.0098315,0.009719,0.0035016,-0.0144846,0.1015508,0.1434532
 ,0.0067942,0.0037235,0.006228,-0.0084979,-0.0002254,0.0040399,-0.00760
 06,0.0943931,0.3273389,0.0025961,0.0094906,0.0047309,0.3837632,-0.0935
 766,0.0082953,-0.0650568,0.2534983\Polar=50.4432314,-1.3114919,90.5722
 318,-3.5001693,-4.5321598,99.0954067\Quadrupole=-0.976246,8.7598924,-7
 .7836464,-0.1644076,0.6422725,-3.0842672\PG=C01 [X(C5H6N2O2)]\NImag=0\
 \0.58881136,0.00665990,0.55173823,0.00448317,-0.06796447,0.56670626,-0
 .06219633,0.00953193,0.01111544,0.15277111,0.00934691,-0.17300866,-0.0
 6342309,-0.02979278,0.72381062,0.01121946,-0.06587320,-0.17416587,-0.0
 5035410,0.08389907,0.77062809,-0.00426149,0.00234237,-0.00117496,-0.06
 570513,0.00778828,0.00260345,0.13578307,0.00072234,-0.01801144,-0.0021
 4369,0.00793044,-0.28440935,0.01325282,-0.01785403,0.65174459,-0.00030
 069,-0.02363868,0.01250294,0.00252232,0.01510426,-0.10671418,-0.049905
 72,-0.04484382,0.81789582,0.00177929,-0.00014424,0.00003428,0.01293428
 ,0.00813913,0.00359988,-0.07510382,0.01155121,0.02247990,0.15682292,-0
 .00012227,-0.00543471,0.00551326,0.00371020,-0.06486916,-0.00679543,0.
 01249092,-0.14903685,-0.12467704,-0.03696514,0.86653144,0.00002244,0.0
 0582387,-0.00165709,0.00598818,-0.06559135,-0.03062146,0.02198013,-0.1
 1210575,-0.30372343,-0.03993142,0.10424981,0.62582229,0.00868035,-0.00
 049238,0.00082921,0.02131359,0.00293371,0.01088241,0.02134471,0.001114
 12,0.00338336,-0.07546853,-0.00248266,0.00635777,0.10934766,-0.0000571
 4,0.00835716,0.00097882,0.00849275,-0.02479465,-0.08743850,-0.00552796
 ,-0.00005370,0.08522290,-0.00204076,-0.20862241,0.09932617,-0.02155775
 ,0.56738156,0.00059421,0.00672842,-0.00280739,0.00787148,-0.01350215,-
 0.07491800,0.00697641,-0.00303912,-0.06928845,0.00612294,0.10526090,-0
 .21334892,-0.03341787,0.03651746,0.52989583,-0.00669102,0.00046819,0.0
 0207076,-0.07147782,-0.00089489,0.01686865,0.01580342,-0.00368045,0.00
 574889,0.01015392,0.00638331,-0.00392005,-0.08285445,0.01890194,0.0130
 9389,0.15780846,0.00144268,0.00585635,-0.02586765,-0.00238415,-0.12655
 147,0.06215530,0.00121870,-0.04824006,0.01858053,0.00112577,-0.1111383
 8,0.05065756,0.01897632,-0.31150931,-0.12731000,-0.02486426,0.91239935
 ,0.00153816,-0.01291256,-0.02000136,0.01768556,0.04235113,-0.32782467,
 0.00309027,0.08364400,-0.07027556,-0.00107265,-0.01912458,0.03477536,0
 .01305469,-0.12631352,-0.18609592,-0.03480511,-0.08008545,0.65960697,-
 0.00048614,-0.00046608,-0.00050833,-0.00643131,-0.00045751,-0.00151601
 ,-0.07294488,-0.00300797,0.00740854,-0.00523809,-0.00184440,0.00222831
 ,0.00834514,0.00173582,0.00112294,0.00334169,0.00062008,-0.00113205,0.
 22338825,-0.00017315,0.00040830,0.00177087,-0.00230452,-0.02359010,0.0
 3975212,-0.00249862,-0.12782177,0.06283104,-0.00133077,0.01525792,0.00
 664707,0.00073521,0.01174738,-0.01148141,0.00142038,-0.01065222,-0.011
 33383,-0.02890948,0.69200757,-0.00066580,0.00567567,0.00525133,-0.0005
 2505,0.01532717,-0.00792102,0.00715961,0.07004814,-0.20491887,0.001970
 62,0.01335360,-0.03847884,0.00166269,-0.02484322,-0.00016728,-0.001567
 28,-0.00067139,0.02444123,-0.05935215,0.12608640,0.94151092,-0.0020988
 1,0.00025113,0.00008666,-0.00095817,0.00056595,-0.00075885,0.02223384,
 0.00187735,0.00749312,0.00454709,-0.00022733,-0.00080055,-0.00282559,-
 0.00124841,0.00008981,-0.00029823,0.00021344,0.00110668,-0.08638522,0.
 02490187,0.04814876,0.04086294,0.00013233,-0.00591343,0.00029110,0.000
 03624,-0.00052589,-0.00072530,0.00065750,0.01768652,-0.00590967,-0.000
 12239,-0.00211743,0.00519698,-0.00046068,0.00443071,0.00215491,0.00033
 535,0.00007436,-0.00459828,0.02461478,-0.24251418,-0.24133499,-0.03430
 599,0.29136598,0.00015210,-0.00128396,-0.00341049,-0.00046571,-0.00778
 980,0.00948726,0.00813892,-0.02234862,-0.07359158,-0.00086907,0.006663
 47,0.01236412,-0.00033291,0.01267674,-0.00526393,0.00104480,-0.0029941
 0,-0.01246020,0.04833413,-0.24521039,-0.59418789,-0.06055089,0.3181218
 1,0.67025542,0.00044425,0.00014945,0.00015318,0.00266843,-0.00024076,0
 .00060604,0.01181935,-0.00098054,0.00003477,0.00047020,0.00000914,0.00
 036422,-0.00043824,0.00012676,-0.00014626,-0.00033166,-0.00021200,-0.0
 0013701,-0.06714757,0.00729888,0.00519077,0.02856529,0.00950007,0.0044
 5487,0.03966866,0.00002268,-0.00008350,-0.00000172,-0.00027649,0.00568
 992,0.00211011,0.00060976,-0.04006229,0.02047627,0.00066294,-0.0019613
 8,-0.00750441,0.00002053,-0.00513414,0.00226569,-0.00030826,-0.0005732
 4,0.00420183,0.01007085,-0.28309971,-0.01448504,0.00842337,-0.07056284
 ,-0.05735844,-0.01002560,0.49086244,0.00022090,-0.00168350,-0.00157073
 ,0.00063086,0.00153976,-0.00653612,-0.00084188,0.04137770,0.00023518,0
 .00000342,0.00123894,-0.00021637,-0.00008955,0.00089622,0.00024029,-0.
 00008362,0.00294492,-0.00082046,0.00363370,0.02282952,-0.12751951,0.00
 506463,-0.07189716,0.00134985,-0.03663149,-0.11729669,0.58972849,-0.21
 922258,0.01433213,-0.13674009,0.00848931,-0.00202455,0.00461700,0.0005
 2074,0.00010207,-0.00008829,-0.00014967,-0.00006681,-0.00036410,-0.000
 55606,-0.00038822,0.00037092,0.00025844,0.00067593,0.00148884,0.000138
 67,-0.00100454,-0.00193133,0.00032942,0.00188232,0.00061524,-0.0002206
 5,0.00067022,0.00041170,0.22929384,0.01978409,-0.05068822,0.01698414,-
 0.01941783,-0.00191762,-0.02564806,-0.00085850,0.00169407,0.00163938,0
 .00042683,0.00068991,-0.00284487,0.00117338,-0.00333770,-0.00104343,-0
 .00219244,-0.00133913,0.00377623,-0.00018402,-0.00112668,-0.00314979,-
 0.00007842,-0.00017641,0.00220699,0.00003011,0.00039077,0.00040752,-0.
 01735364,0.05474999,-0.13283929,0.01141351,-0.15353843,-0.01527648,-0.
 00372596,-0.02359939,0.00002711,0.00171351,0.00064592,0.00018123,0.000
 36245,-0.00141607,0.00143772,-0.00167313,-0.00086249,-0.00229382,-0.00
 253293,0.00197064,-0.00026678,-0.00016290,-0.00008404,0.00051175,0.000
 86112,-0.00030439,-0.00008432,-0.00019799,0.00008904,0.14625040,-0.006
 45233,0.17320628,-0.05051292,-0.00082054,0.00036504,-0.00185746,0.0034
 8983,-0.00127155,0.00074667,-0.00001956,0.00046110,0.00038227,0.000175
 50,0.00006428,-0.00047658,-0.00001476,-0.00005237,0.00048709,0.0001448
 6,-0.00017852,-0.00019655,0.00005573,0.00019100,0.00096615,-0.00011941
 ,0.00000398,-0.00020492,-0.00004543,-0.00006397,0.00198088,0.02264234,
 -0.00997353,0.04566180,0.00014090,-0.25958615,0.11073709,0.00051239,-0
 .03042773,0.00863935,0.00023125,0.00197081,-0.00372013,0.00004282,-0.0
 0121409,0.00030227,0.00002362,-0.00008708,-0.00052592,-0.00025183,0.00
 117042,0.00297125,0.00000221,0.00035351,-0.00031941,0.00002509,-0.0000
 8586,0.00023344,-0.00001424,-0.00019346,0.00018264,0.00035761,0.000659
 35,0.00080717,-0.00084518,0.28835055,-0.00015321,0.12347218,-0.1149929
 6,0.00033435,-0.03082612,0.01037160,0.00032414,-0.00037373,-0.00332710
 ,0.00013591,-0.00145741,-0.00062254,-0.00007288,-0.00001847,0.00049661
 ,0.00003565,-0.00229784,0.00124827,0.00022025,-0.00102615,-0.00254865,
 -0.00007391,0.00216351,0.00078099,-0.00008154,0.00059422,0.00054181,0.
 00276713,0.01655622,-0.00767915,-0.00096128,-0.11958316,0.12270413,-0.
 25338862,-0.03157131,0.11956980,0.00406731,0.00305702,0.00170359,0.000
 50250,-0.00045496,-0.00007091,-0.00020056,-0.00005583,0.00077969,-0.00
 028482,0.00088202,-0.00019174,0.00006177,-0.00018701,-0.00208243,-0.00
 033377,0.00109527,0.00215109,0.00065821,-0.00192548,-0.00066009,-0.000
 10174,-0.00067563,-0.00047644,-0.02093598,-0.00449934,0.01257463,0.002
 73015,-0.00032251,-0.00253383,0.26716059,-0.03781697,-0.05484223,0.023
 16505,0.02365736,0.00004558,-0.02250385,0.00050480,0.00172718,0.001741
 47,-0.00006810,0.00067043,-0.00283517,-0.00076283,-0.00336512,-0.00121
 286,0.00172878,-0.00121285,0.00392743,0.00072009,-0.00100227,-0.002909
 99,-0.00018624,-0.00034071,0.00214579,-0.00013106,0.00032799,0.0003582
 3,0.00295070,0.00038292,-0.00044914,-0.02463810,-0.00129147,0.01277046
 ,0.03452770,0.05891211,0.11609762,0.01818062,-0.11521608,0.01986698,-0
 .00190318,-0.02114299,-0.00018541,0.00166354,0.00063179,-0.00002718,0.
 00035468,-0.00134630,-0.00121369,-0.00168747,-0.00110567,0.00221537,-0
 .00241231,0.00204357,0.00024590,0.00001727,0.00026389,-0.00043548,0.00
 053538,-0.00047384,0.00007068,-0.00029316,0.00003325,-0.01740244,-0.00
 223039,0.01156138,0.01130126,0.00161842,-0.00647826,-0.13078381,-0.013
 92014,0.13117994,0.00138866,0.00010848,0.00000566,0.00431360,0.0002836
 8,0.00076557,0.00250196,0.00192304,-0.00011408,-0.03677419,0.01830272,
 0.00658990,-0.00362040,-0.00126041,-0.00096480,0.00638439,-0.00002953,
 0.00058133,-0.00201026,0.00012233,-0.00015387,0.00001239,-0.00007160,-
 0.00000303,0.00002688,-0.00008088,-0.00000446,-0.00001271,0.00023262,0
 .00006535,0.00002518,0.00002780,0.00003129,0.00001254,-0.00023091,-0.0
 0006649,0.02695944,0.00004718,0.00005490,0.00009827,0.00016332,0.00123
 052,-0.00045777,0.00004882,-0.00214199,0.00189844,0.01815013,-0.336135
 84,-0.07833345,0.00074041,-0.01637927,-0.00300017,0.00008450,-0.001897
 15,0.00338427,0.00000822,-0.00100599,-0.00064929,0.00000311,0.00018623
 ,-0.00013930,-0.00004675,-0.00015902,0.00072096,0.00000239,-0.00000149
 ,-0.00002305,0.00000480,0.00006338,-0.00008225,0.00000237,-0.00002047,
 -0.00002850,-0.01928368,0.35638199,0.00003885,-0.00071508,0.00126503,0
 .00083121,-0.00209025,-0.00551356,0.00090386,-0.02298228,0.00299614,0.
 00666740,-0.08034878,-0.08058887,-0.00204664,0.02359334,0.01066769,0.0
 0052092,0.00489228,-0.00313858,-0.00009023,-0.00218554,0.00038956,-0.0
 0004434,0.00085840,0.00012738,-0.00002451,0.00118492,-0.00030683,-0.00
 002619,0.00001049,0.00002456,0.00004360,-0.00038724,-0.00034062,0.0000
 2342,-0.00002252,0.00001817,-0.00673992,0.07708810,0.07344882,-0.00232
 508,-0.00033517,-0.00028183,0.00057459,-0.00229537,0.00101113,0.003530
 62,0.00031703,0.00069488,0.00654069,0.00069849,0.00067110,-0.00287626,
 0.00194245,-0.00149516,-0.03253541,0.00324292,0.00086820,0.00228576,0.
 00000892,0.00013905,-0.00002509,-0.00000517,-0.00001712,-0.00036376,-0
 .00004256,0.00000764,0.00007969,0.00030003,-0.00031625,0.00028477,0.00
 007018,0.00002466,0.00005340,-0.00026589,0.00032059,0.00092794,0.00009
 617,-0.00003404,0.02414391,-0.00011581,0.00097916,-0.00026975,0.000207
 25,-0.00006417,-0.00241494,0.00015668,0.00106089,-0.00071007,0.0006205
 4,-0.00280687,-0.00313748,0.00004002,-0.01938817,0.00837800,0.00279700
 ,-0.30583730,0.11084383,0.00010469,0.00001588,-0.00015540,-0.00002124,
 0.00016578,0.00017960,-0.00002701,0.00013572,0.00008694,-0.00001324,0.
 00012347,0.00003757,-0.00002144,0.00031981,0.00026805,0.00000192,0.000
 10109,0.00006474,-0.00000839,-0.00039909,0.00083208,-0.00370770,0.3255
 7867,-0.00039994,0.00264655,0.00152224,-0.00034078,0.03082348,-0.01157
 822,0.00078430,-0.00286634,-0.00525579,0.00071101,-0.00418417,-0.00055
 536,-0.00046854,-0.01683233,0.01242377,0.00110967,0.10491241,-0.103856
 85,0.00008778,0.00111684,0.00052556,-0.00000816,-0.00003082,0.00009760
 ,-0.00000154,0.00028417,-0.00050263,0.00001191,-0.00023011,-0.00001172
 ,0.00007402,-0.00094954,-0.00018241,0.00001672,-0.00027237,0.00003667,
 0.00002258,-0.00055671,0.00093006,-0.00156963,-0.11400932,0.10639773,0
 .00007909,-0.00001386,-0.00000800,0.00149400,0.00010136,0.00002334,0.0
 0322846,0.00045991,0.00025281,-0.00069581,-0.00000584,-0.00002990,0.00
 036949,0.00001366,0.00002560,-0.00011059,0.00001627,-0.00000597,0.0036
 7428,0.00058249,-0.00241812,-0.00558421,-0.00014790,0.00015477,-0.0148
 5452,-0.00902551,0.02821857,0.00000666,-0.00000519,0.00000229,-0.00001
 653,-0.00000009,0.00000327,-0.00000099,0.00001068,-0.00000390,-0.00013
 543,-0.00002099,-0.00002338,-0.00029575,-0.00001326,-0.00002940,0.0128
 4183,-0.00001365,0.00017422,0.00013178,-0.00006609,-0.00061785,0.00204
 827,0.00069004,-0.00610660,-0.00399487,-0.00004798,0.00018742,0.000148
 76,-0.00000101,0.00075474,-0.00019031,0.00007268,-0.00054936,-0.000731
 77,-0.00300728,-0.02897764,0.05802754,-0.00019370,0.00832715,-0.005103
 25,-0.00543645,-0.09557726,0.11829400,-0.00012235,-0.00010322,0.000022
 08,0.00001138,-0.00000197,-0.00015950,0.00012576,-0.00009219,0.0000405
 0,-0.00003527,0.00022329,0.00027208,-0.00002434,0.00001513,0.00014826,
 0.00804828,0.12234414,-0.00000799,0.00013064,0.00011257,0.00011574,-0.
 00019297,0.00004854,0.00011976,-0.00099634,0.00218717,-0.00000628,-0.0
 0040970,-0.00038652,0.00003423,-0.00040502,0.00013384,-0.00003870,0.00
 002866,0.00038757,-0.00041600,0.01034910,0.00344361,0.00017076,-0.0056
 8699,-0.00477029,0.02623214,0.16602023,-0.45474525,0.00001932,0.000018
 01,-0.00000213,-0.00000307,-0.00000623,0.00002827,-0.00001968,0.000017
 60,-0.00000552,-0.00001503,0.00008043,0.00002104,-0.00002322,0.0000061
 5,0.00000936,-0.02616198,-0.16895358,0.45353774\\0.00000066,-0.0000268
 7,-0.00002456,0.00001806,0.00009460,-0.00005621,0.00008407,-0.00020202
 ,-0.00020091,0.00000318,0.00030473,0.00001589,-0.00001291,-0.00017726,
 0.00011022,-0.00001471,0.00004523,0.00012933,-0.00026578,0.00008708,0.
 00021940,0.00010704,-0.00007835,-0.00016071,0.00007121,-0.00001316,0.0
 0003828,0.00000496,0.00000239,-0.00001379,0.00000234,-0.00000807,-0.00
 000848,-0.00000183,0.00000223,-0.00001687,-0.00000069,-0.00000927,0.00
 000863,-0.00000008,-0.00001471,-0.00001918,0.00000448,-0.00000654,-0.0
 0002104\\\@
 The archive entry for this job was punched.


 MARY HAD A LITTLE LAMB
      HIS FEET WERE BLACK AS SOOT,
           AND EVERYWHERE THAT MARY WENT
                HIS SOOTY FOOT HE PUT.

                    -- NONAME
 Job cpu time:       0 days  7 hours 52 minutes 14.2 seconds.
 Elapsed time:       0 days  0 hours 23 minutes 36.6 seconds.
 File lengths (MBytes):  RWF=    335 Int=      0 D2E=      0 Chk=     25 Scr=      1
 Normal termination of Gaussian 16 at Tue Mar  4 18:52:12 2025.
