 Entering Gaussian System, Link 0=g16
 Initial command:
 /usr/local/gaussian16c01/g16/l1.exe "/scr/dhuang/Gau-10401.inp" -scrdir="/scr/dhuang/"
 Entering Link 1 = /usr/local/gaussian16c01/g16/l1.exe PID=     10402.
  
 Copyright (c) 1988-2019, Gaussian, Inc.  All Rights Reserved.
  
 This is part of the Gaussian(R) 16 program.  It is based on
 the Gaussian(R) 09 system (copyright 2009, Gaussian, Inc.),
 the Gaussian(R) 03 system (copyright 2003, Gaussian, Inc.),
 the Gaussian(R) 98 system (copyright 1998, Gaussian, Inc.),
 the Gaussian(R) 94 system (copyright 1995, Gaussian, Inc.),
 the Gaussian 92(TM) system (copyright 1992, Gaussian, Inc.),
 the Gaussian 90(TM) system (copyright 1990, Gaussian, Inc.),
 the Gaussian 88(TM) system (copyright 1988, Gaussian, Inc.),
 the Gaussian 86(TM) system (copyright 1986, Carnegie Mellon
 University), and the Gaussian 82(TM) system (copyright 1983,
 Carnegie Mellon University). Gaussian is a federally registered
 trademark of Gaussian, Inc.
  
 This software contains proprietary and confidential information,
 including trade secrets, belonging to Gaussian, Inc.
  
 This software is provided under written license and may be
 used, copied, transmitted, or stored only in accord with that
 written license.
  
 The following legend is applicable only to US Government
 contracts under FAR:
  
                    RESTRICTED RIGHTS LEGEND
  
 Use, reproduction and disclosure by the US Government is
 subject to restrictions as set forth in subparagraphs (a)
 and (c) of the Commercial Computer Software - Restricted
 Rights clause in FAR 52.227-19.
  
 Gaussian, Inc.
 340 Quinnipiac St., Bldg. 40, Wallingford CT 06492
  
  
 ---------------------------------------------------------------
 Warning -- This program may not be used in any manner that
 competes with the business of Gaussian, Inc. or will provide
 assistance to any competitor of Gaussian, Inc.  The licensee
 of this program is prohibited from giving any competitor of
 Gaussian, Inc. access to this program.  By using this program,
 the user acknowledges that Gaussian, Inc. is engaged in the
 business of creating and licensing software in the field of
 computational chemistry and represents and warrants to the
 licensee that it is not a competitor of Gaussian, Inc. and that
 it will not use this program in any manner prohibited above.
 ---------------------------------------------------------------
  

 Cite this work as:
 Gaussian 16, Revision C.01,
 M. J. Frisch, G. W. Trucks, H. B. Schlegel, G. E. Scuseria, 
 M. A. Robb, J. R. Cheeseman, G. Scalmani, V. Barone, 
 G. A. Petersson, H. Nakatsuji, X. Li, M. Caricato, A. V. Marenich, 
 J. Bloino, B. G. Janesko, R. Gomperts, B. Mennucci, H. P. Hratchian, 
 J. V. Ortiz, A. F. Izmaylov, J. L. Sonnenberg, D. Williams-Young, 
 F. Ding, F. Lipparini, F. Egidi, J. Goings, B. Peng, A. Petrone, 
 T. Henderson, D. Ranasinghe, V. G. Zakrzewski, J. Gao, N. Rega, 
 G. Zheng, W. Liang, M. Hada, M. Ehara, K. Toyota, R. Fukuda, 
 J. Hasegawa, M. Ishida, T. Nakajima, Y. Honda, O. Kitao, H. Nakai, 
 T. Vreven, K. Throssell, J. A. Montgomery, Jr., J. E. Peralta, 
 F. Ogliaro, M. J. Bearpark, J. J. Heyd, E. N. Brothers, K. N. Kudin, 
 V. N. Staroverov, T. A. Keith, R. Kobayashi, J. Normand, 
 K. Raghavachari, A. P. Rendell, J. C. Burant, S. S. Iyengar, 
 J. Tomasi, M. Cossi, J. M. Millam, M. Klene, C. Adamo, R. Cammi, 
 J. W. Ochterski, R. L. Martin, K. Morokuma, O. Farkas, 
 J. B. Foresman, and D. J. Fox, Gaussian, Inc., Wallingford CT, 2019.
 
 ******************************************
 Gaussian 16:  ES64L-G16RevC.01  3-Jul-2019
                 4-Mar-2025 
 ******************************************
 %nprocshared=20
 Will use up to   20 processors via shared memory.
 %mem=10000MW
 %chk=17.chk
 ------------------------------------
 # opt freq m062x/aug-cc-pvtz pop=nbo
 ------------------------------------
 1/18=20,19=15,26=3,38=1/1,3;
 2/9=110,12=2,17=6,18=5,40=1/2;
 3/5=16,6=1,7=10,11=2,25=1,30=1,71=1,74=-55/1,2,3;
 4//1;
 5/5=2,38=5/2;
 6/7=2,8=2,9=2,10=2,28=1,40=1/1,7;
 7//1,2,3,16;
 1/18=20,19=15,26=3/3(2);
 2/9=110/2;
 99//99;
 2/9=110/2;
 3/5=16,6=1,7=10,11=2,25=1,30=1,71=1,74=-55/1,2,3;
 4/5=5,16=3,69=1/1;
 5/5=2,38=5/2;
 7//1,2,3,16;
 1/18=20,19=15,26=3/3(-5);
 2/9=110/2;
 6/7=2,8=2,9=2,10=2,19=2,28=1,40=1/1,7;
 99/9=1/99;
 --
 17
 --
 Symbolic Z-matrix:
 Charge =  0 Multiplicity = 1
 C                     0.9834    1.60389   1.14845 
 C                     1.50354   1.34123   2.3708 
 F                     2.67042   0.74433   2.53888 
 C                     0.85241   1.67757   3.49619 
 C                    -0.33785   2.2864    3.44477 
 C                    -0.86769   2.55407   2.24564 
 C                    -0.22411   2.22157   1.11425 
 F                    -0.84941   2.53829  -0.01099 
 C                     1.6539    1.2577   -0.0012 
 O                     1.19325   1.48909  -1.10516 
 O                     2.8663    0.6381   -0.0018 
 H                     1.29908   1.45163   4.47941 
 H                    -0.87028   2.56147   4.37018 
 H                    -1.8489    3.05595   2.19281 
 H                     3.22361   0.45281  -0.87689 
 

 GradGradGradGradGradGradGradGradGradGradGradGradGradGradGradGradGradGrad
 Berny optimization.
 Initialization pass.
                           ----------------------------
                           !    Initial Parameters    !
                           ! (Angstroms and Degrees)  !
 --------------------------                            --------------------------
 ! Name  Definition              Value          Derivative Info.                !
 --------------------------------------------------------------------------------
 ! R1    R(1,2)                  1.3541         estimate D2E/DX2                !
 ! R2    R(1,7)                  1.3568         estimate D2E/DX2                !
 ! R3    R(1,9)                  1.3752         estimate D2E/DX2                !
 ! R4    R(2,3)                  1.3214         estimate D2E/DX2                !
 ! R5    R(2,4)                  1.343          estimate D2E/DX2                !
 ! R6    R(4,5)                  1.3379         estimate D2E/DX2                !
 ! R7    R(4,12)                 1.1033         estimate D2E/DX2                !
 ! R8    R(5,6)                  1.338          estimate D2E/DX2                !
 ! R9    R(5,13)                 1.1025         estimate D2E/DX2                !
 ! R10   R(6,7)                  1.3434         estimate D2E/DX2                !
 ! R11   R(6,14)                 1.1034         estimate D2E/DX2                !
 ! R12   R(7,8)                  1.3257         estimate D2E/DX2                !
 ! R13   R(9,10)                 1.2184         estimate D2E/DX2                !
 ! R14   R(9,11)                 1.3615         estimate D2E/DX2                !
 ! R15   R(11,15)                0.9632         estimate D2E/DX2                !
 ! A1    A(2,1,7)              116.931          estimate D2E/DX2                !
 ! A2    A(2,1,9)              121.2341         estimate D2E/DX2                !
 ! A3    A(7,1,9)              121.835          estimate D2E/DX2                !
 ! A4    A(1,2,3)              122.7939         estimate D2E/DX2                !
 ! A5    A(1,2,4)              121.4413         estimate D2E/DX2                !
 ! A6    A(3,2,4)              115.7648         estimate D2E/DX2                !
 ! A7    A(2,4,5)              120.8697         estimate D2E/DX2                !
 ! A8    A(2,4,12)             119.9475         estimate D2E/DX2                !
 ! A9    A(5,4,12)             119.1829         estimate D2E/DX2                !
 ! A10   A(4,5,6)              118.5391         estimate D2E/DX2                !
 ! A11   A(4,5,13)             120.724          estimate D2E/DX2                !
 ! A12   A(6,5,13)             120.7368         estimate D2E/DX2                !
 ! A13   A(5,6,7)              121.0334         estimate D2E/DX2                !
 ! A14   A(5,6,14)             119.081          estimate D2E/DX2                !
 ! A15   A(7,6,14)             119.8856         estimate D2E/DX2                !
 ! A16   A(1,7,6)              121.1855         estimate D2E/DX2                !
 ! A17   A(1,7,8)              123.3637         estimate D2E/DX2                !
 ! A18   A(6,7,8)              115.4508         estimate D2E/DX2                !
 ! A19   A(1,9,10)             121.6909         estimate D2E/DX2                !
 ! A20   A(1,9,11)             123.3046         estimate D2E/DX2                !
 ! A21   A(10,9,11)            115.0045         estimate D2E/DX2                !
 ! A22   A(9,11,15)            114.7247         estimate D2E/DX2                !
 ! D1    D(7,1,2,3)            179.9824         estimate D2E/DX2                !
 ! D2    D(7,1,2,4)             -0.0018         estimate D2E/DX2                !
 ! D3    D(9,1,2,3)             -0.0217         estimate D2E/DX2                !
 ! D4    D(9,1,2,4)            179.9941         estimate D2E/DX2                !
 ! D5    D(2,1,7,6)              0.0022         estimate D2E/DX2                !
 ! D6    D(2,1,7,8)           -179.9997         estimate D2E/DX2                !
 ! D7    D(9,1,7,6)           -179.9937         estimate D2E/DX2                !
 ! D8    D(9,1,7,8)              0.0044         estimate D2E/DX2                !
 ! D9    D(2,1,9,10)           179.9424         estimate D2E/DX2                !
 ! D10   D(2,1,9,11)            -0.0261         estimate D2E/DX2                !
 ! D11   D(7,1,9,10)            -0.0619         estimate D2E/DX2                !
 ! D12   D(7,1,9,11)           179.9697         estimate D2E/DX2                !
 ! D13   D(1,2,4,5)              0.001          estimate D2E/DX2                !
 ! D14   D(1,2,4,12)           179.9899         estimate D2E/DX2                !
 ! D15   D(3,2,4,5)           -179.9842         estimate D2E/DX2                !
 ! D16   D(3,2,4,12)             0.0046         estimate D2E/DX2                !
 ! D17   D(2,4,5,6)             -0.0005         estimate D2E/DX2                !
 ! D18   D(2,4,5,13)          -179.9983         estimate D2E/DX2                !
 ! D19   D(12,4,5,6)          -179.9894         estimate D2E/DX2                !
 ! D20   D(12,4,5,13)            0.0127         estimate D2E/DX2                !
 ! D21   D(4,5,6,7)              0.0009         estimate D2E/DX2                !
 ! D22   D(4,5,6,14)          -179.9993         estimate D2E/DX2                !
 ! D23   D(13,5,6,7)           179.9987         estimate D2E/DX2                !
 ! D24   D(13,5,6,14)           -0.0015         estimate D2E/DX2                !
 ! D25   D(5,6,7,1)             -0.0018         estimate D2E/DX2                !
 ! D26   D(5,6,7,8)            180.0            estimate D2E/DX2                !
 ! D27   D(14,6,7,1)           179.9984         estimate D2E/DX2                !
 ! D28   D(14,6,7,8)             0.0002         estimate D2E/DX2                !
 ! D29   D(1,9,11,15)          180.0            estimate D2E/DX2                !
 ! D30   D(10,9,11,15)           0.0296         estimate D2E/DX2                !
 --------------------------------------------------------------------------------
 Trust Radius=3.00D-01 FncErr=1.00D-07 GrdErr=1.00D-06 EigMax=2.50D+02 EigMin=1.00D-04
 Number of steps in this run=     77 maximum allowed number of steps=    100.
 GradGradGradGradGradGradGradGradGradGradGradGradGradGradGradGradGradGrad

                          Input orientation:                          
 ---------------------------------------------------------------------
 Center     Atomic      Atomic             Coordinates (Angstroms)
 Number     Number       Type             X           Y           Z
 ---------------------------------------------------------------------
      1          6           0        0.983402    1.603886    1.148451
      2          6           0        1.503536    1.341229    2.370804
      3          9           0        2.670423    0.744326    2.538880
      4          6           0        0.852413    1.677569    3.496193
      5          6           0       -0.337855    2.286398    3.444774
      6          6           0       -0.867690    2.554073    2.245643
      7          6           0       -0.224112    2.221568    1.114251
      8          9           0       -0.849407    2.538294   -0.010989
      9          6           0        1.653900    1.257700   -0.001200
     10          8           0        1.193248    1.489089   -1.105164
     11          8           0        2.866300    0.638100   -0.001800
     12          1           0        1.299080    1.451633    4.479411
     13          1           0       -0.870282    2.561470    4.370178
     14          1           0       -1.848899    3.055950    2.192815
     15          1           0        3.223610    0.452812   -0.876891
 ---------------------------------------------------------------------
                    Distance matrix (angstroms):
                    1          2          3          4          5
     1  C    0.000000
     2  C    1.354133   0.000000
     3  F    2.349081   1.321426   0.000000
     4  C    2.352548   1.342975   2.256667   0.000000
     5  C    2.735808   2.331839   3.499766   1.337930   0.000000
     6  C    2.352281   2.666339   3.984898   2.300193   1.338017
     7  C    1.356757   2.310561   3.548260   2.669923   2.334198
     8  F    2.361483   3.555593   4.702058   3.992163   3.502490
     9  C    1.375176   2.378233   2.783681   3.612537   4.110966
    10  O    2.266273   3.492921   4.001971   4.617811   4.866407
    11  O    2.408553   2.825025   2.550433   4.167995   4.986218
    12  H    3.349348   2.121371   2.479218   1.103302   2.108758
    13  H    3.838312   3.334891   4.380896   2.124338   1.102504
    14  H    3.349792   3.769717   5.087989   3.300881   2.107811
    15  H    3.231952   3.780934   3.472533   5.123130   5.892610
                    6          7          8          9         10
     6  C    0.000000
     7  C    1.343428   0.000000
     8  F    2.256762   1.325697   0.000000
     9  C    3.617638   2.387510   2.811861   0.000000
    10  O    4.075484   2.733357   2.543715   1.218391   0.000000
    11  O    4.760739   3.647409   4.173403   1.361550   2.177314
    12  H    3.301512   3.773224   5.095147   4.498820   5.585703
    13  H    2.124550   3.336785   4.381279   5.213469   5.948742
    14  H    1.103378   2.121184   2.474612   4.507438   4.752513
    15  H    5.559159   4.356596   4.657089   1.969433   2.290927
                   11         12         13         14         15
    11  O    0.000000
    12  H    4.816562   0.000000
    13  H    6.064288   2.439221   0.000000
    14  H    5.735454   4.208577   2.437850   0.000000
    15  H    0.963216   5.778532   6.981269   6.475319   0.000000
 Stoichiometry    C7H4F2O2
 Framework group  C1[X(C7H4F2O2)]
 Deg. of freedom    39
 Full point group                 C1      NOp   1
 Largest Abelian subgroup         C1      NOp   1
 Largest concise Abelian subgroup C1      NOp   1
                         Standard orientation:                         
 ---------------------------------------------------------------------
 Center     Atomic      Atomic             Coordinates (Angstroms)
 Number     Number       Type             X           Y           Z
 ---------------------------------------------------------------------
      1          6           0        0.204766    0.048731    0.000046
      2          6           0       -0.364232   -1.180056   -0.000021
      3          9           0        0.343031   -2.296276   -0.000409
      4          6           0       -1.698322   -1.334286   -0.000008
      5          6           0       -2.512138   -0.272326    0.000051
      6          6           0       -1.967988    0.950045    0.000107
      7          6           0       -0.634679    1.114622    0.000087
      8          9           0       -0.215915    2.372442    0.000148
      9          6           0        1.571406    0.201718    0.000153
     10          8           0        2.092164    1.303211   -0.000830
     11          8           0        2.440971   -0.845982    0.000717
     12          1           0       -2.135664   -2.347207   -0.000232
     13          1           0       -3.607023   -0.401723    0.000089
     14          1           0       -2.630823    1.832140    0.000168
     15          1           0        3.371509   -0.597216    0.000727
 ---------------------------------------------------------------------
 Rotational constants (GHZ):           1.5774807           1.2704183           0.7036979
 Standard basis: Aug-CC-pVTZ (5D, 7F)
 There are   705 symmetry adapted cartesian basis functions of A   symmetry.
 There are   598 symmetry adapted basis functions of A   symmetry.
   598 basis functions,   900 primitive gaussians,   705 cartesian basis functions
    40 alpha electrons       40 beta electrons
       nuclear repulsion energy       616.4851160895 Hartrees.
 NAtoms=   15 NActive=   15 NUniq=   15 SFac= 1.00D+00 NAtFMM=   60 NAOKFM=F Big=F
 Integral buffers will be    131072 words long.
 Raffenetti 2 integral format.
 Two-electron integral symmetry is turned on.
 One-electron integrals computed using PRISM.
 NBasis=   598 RedAO= T EigKep=  1.53D-06  NBF=   598
 NBsUse=   596 1.00D-06 EigRej=  9.61D-07 NBFU=   596
 ExpMin= 2.53D-02 ExpMax= 1.95D+04 ExpMxC= 6.65D+02 IAcc=3 IRadAn=         5 AccDes= 0.00D+00
 Harris functional with IExCor= 1009 and IRadAn=       5 diagonalized for initial guess.
 HarFok:  IExCor= 1009 AccDes= 0.00D+00 IRadAn=         5 IDoV= 1 UseB2=F ITyADJ=14
 ICtDFT=  3500011 ScaDFX=  1.000000  1.000000  1.000000  1.000000
 FoFCou: FMM=F IPFlag=           0 FMFlag=      100000 FMFlg1=           0
         NFxFlg=           0 DoJE=T BraDBF=F KetDBF=T FulRan=T
         wScrn=  0.000000 ICntrl=       500 IOpCl=  0 I1Cent=   200000004 NGrid=           0
         NMat0=    1 NMatS0=      1 NMatT0=    0 NMatD0=    1 NMtDS0=    0 NMtDT0=    0
 Petite list used in FoFCou.
 Requested convergence on RMS density matrix=1.00D-08 within 128 cycles.
 Requested convergence on MAX density matrix=1.00D-06.
 Requested convergence on             energy=1.00D-06.
 No special actions if energy rises.
 SCF Done:  E(RM062X) =  -619.276280341     A.U. after   13 cycles
            NFock= 13  Conv=0.83D-08     -V/T= 2.0034

 **********************************************************************

            Population analysis using the SCF Density.

 **********************************************************************

 Orbital symmetries:
       Occupied  (A) (A) (A) (A) (A) (A) (A) (A) (A) (A) (A) (A)
                 (A) (A) (A) (A) (A) (A) (A) (A) (A) (A) (A) (A)
                 (A) (A) (A) (A) (A) (A) (A) (A) (A) (A) (A) (A)
                 (A) (A) (A) (A)
       Virtual   (A) (A) (A) (A) (A) (A) (A) (A) (A) (A) (A) (A)
                 (A) (A) (A) (A) (A) (A) (A) (A) (A) (A) (A) (A)
                 (A) (A) (A) (A) (A) (A) (A) (A) (A) (A) (A) (A)
                 (A) (A) (A) (A) (A) (A) (A) (A) (A) (A) (A) (A)
                 (A) (A) (A) (A) (A) (A) (A) (A) (A) (A) (A) (A)
                 (A) (A) (A) (A) (A) (A) (A) (A) (A) (A) (A) (A)
                 (A) (A) (A) (A) (A) (A) (A) (A) (A) (A) (A) (A)
                 (A) (A) (A) (A) (A) (A) (A) (A) (A) (A) (A) (A)
                 (A) (A) (A) (A) (A) (A) (A) (A) (A) (A) (A) (A)
                 (A) (A) (A) (A) (A) (A) (A) (A) (A) (A) (A) (A)
                 (A) (A) (A) (A) (A) (A) (A) (A) (A) (A) (A) (A)
                 (A) (A) (A) (A) (A) (A) (A) (A) (A) (A) (A) (A)
                 (A) (A) (A) (A) (A) (A) (A) (A) (A) (A) (A) (A)
                 (A) (A) (A) (A) (A) (A) (A) (A) (A) (A) (A) (A)
                 (A) (A) (A) (A) (A) (A) (A) (A) (A) (A) (A) (A)
                 (A) (A) (A) (A) (A) (A) (A) (A) (A) (A) (A) (A)
                 (A) (A) (A) (A) (A) (A) (A) (A) (A) (A) (A) (A)
                 (A) (A) (A) (A) (A) (A) (A) (A) (A) (A) (A) (A)
                 (A) (A) (A) (A) (A) (A) (A) (A) (A) (A) (A) (A)
                 (A) (A) (A) (A) (A) (A) (A) (A) (A) (A) (A) (A)
                 (A) (A) (A) (A) (A) (A) (A) (A) (A) (A) (A) (A)
                 (A) (A) (A) (A) (A) (A) (A) (A) (A) (A) (A) (A)
                 (A) (A) (A) (A) (A) (A) (A) (A) (A) (A) (A) (A)
                 (A) (A) (A) (A) (A) (A) (A) (A) (A) (A) (A) (A)
                 (A) (A) (A) (A) (A) (A) (A) (A) (A) (A) (A) (A)
                 (A) (A) (A) (A) (A) (A) (A) (A) (A) (A) (A) (A)
                 (A) (A) (A) (A) (A) (A) (A) (A) (A) (A) (A) (A)
                 (A) (A) (A) (A) (A) (A) (A) (A) (A) (A) (A) (A)
                 (A) (A) (A) (A) (A) (A) (A) (A) (A) (A) (A) (A)
                 (A) (A) (A) (A) (A) (A) (A) (A) (A) (A) (A) (A)
                 (A) (A) (A) (A) (A) (A) (A) (A) (A) (A) (A) (A)
                 (A) (A) (A) (A) (A) (A) (A) (A) (A) (A) (A) (A)
                 (A) (A) (A) (A) (A) (A) (A) (A) (A) (A) (A) (A)
                 (A) (A) (A) (A) (A) (A) (A) (A) (A) (A) (A) (A)
                 (A) (A) (A) (A) (A) (A) (A) (A) (A) (A) (A) (A)
                 (A) (A) (A) (A) (A) (A) (A) (A) (A) (A) (A) (A)
                 (A) (A) (A) (A) (A) (A) (A) (A) (A) (A) (A) (A)
                 (A) (A) (A) (A) (A) (A) (A) (A) (A) (A) (A) (A)
                 (A) (A) (A) (A) (A) (A) (A) (A) (A) (A) (A) (A)
                 (A) (A) (A) (A) (A) (A) (A) (A) (A) (A) (A) (A)
                 (A) (A) (A) (A) (A) (A) (A) (A) (A) (A) (A) (A)
                 (A) (A) (A) (A) (A) (A) (A) (A) (A) (A) (A) (A)
                 (A) (A) (A) (A) (A) (A) (A) (A) (A) (A) (A) (A)
                 (A) (A) (A) (A) (A) (A) (A) (A) (A) (A) (A) (A)
                 (A) (A) (A) (A) (A) (A) (A) (A) (A) (A) (A) (A)
                 (A) (A) (A) (A) (A) (A) (A) (A) (A) (A) (A) (A)
                 (A) (A) (A) (A)
 The electronic state is 1-A.
 Alpha  occ. eigenvalues --  -25.27921 -25.27236 -19.66644 -19.60988 -10.68542
 Alpha  occ. eigenvalues --  -10.65832 -10.65698 -10.58019 -10.57606 -10.56035
 Alpha  occ. eigenvalues --  -10.56008  -1.40690  -1.39754  -1.23606  -1.13141
 Alpha  occ. eigenvalues --   -1.03554  -0.92921  -0.88995  -0.79854  -0.75380
 Alpha  occ. eigenvalues --   -0.72057  -0.68000  -0.65050  -0.62494  -0.61037
 Alpha  occ. eigenvalues --   -0.59965  -0.58835  -0.57291  -0.57026  -0.54068
 Alpha  occ. eigenvalues --   -0.53823  -0.50544  -0.47923  -0.47038  -0.46649
 Alpha  occ. eigenvalues --   -0.44711  -0.40034  -0.35569  -0.35118  -0.33208
 Alpha virt. eigenvalues --   -0.04157  -0.01098   0.00018   0.00755   0.00866
 Alpha virt. eigenvalues --    0.01684   0.02615   0.03619   0.03850   0.05183
 Alpha virt. eigenvalues --    0.05755   0.06291   0.06395   0.06985   0.07294
 Alpha virt. eigenvalues --    0.07757   0.07770   0.08710   0.09269   0.09576
 Alpha virt. eigenvalues --    0.09850   0.09873   0.10635   0.11033   0.11273
 Alpha virt. eigenvalues --    0.12359   0.12980   0.13116   0.14075   0.14915
 Alpha virt. eigenvalues --    0.16274   0.16696   0.17244   0.17624   0.18710
 Alpha virt. eigenvalues --    0.19052   0.19123   0.19931   0.20426   0.20542
 Alpha virt. eigenvalues --    0.21179   0.21909   0.22075   0.22860   0.23161
 Alpha virt. eigenvalues --    0.23330   0.23441   0.24265   0.24567   0.25254
 Alpha virt. eigenvalues --    0.25564   0.25778   0.26593   0.27505   0.27992
 Alpha virt. eigenvalues --    0.28719   0.29322   0.29896   0.31018   0.31912
 Alpha virt. eigenvalues --    0.32116   0.32145   0.32678   0.32864   0.33156
 Alpha virt. eigenvalues --    0.34551   0.34620   0.35471   0.35559   0.36323
 Alpha virt. eigenvalues --    0.36335   0.36544   0.37406   0.37869   0.38409
 Alpha virt. eigenvalues --    0.38782   0.39482   0.40169   0.40640   0.41565
 Alpha virt. eigenvalues --    0.42159   0.42611   0.43058   0.43854   0.44895
 Alpha virt. eigenvalues --    0.45469   0.46068   0.46723   0.46981   0.47298
 Alpha virt. eigenvalues --    0.49014   0.49222   0.50624   0.51379   0.52856
 Alpha virt. eigenvalues --    0.53343   0.54441   0.54891   0.55081   0.55108
 Alpha virt. eigenvalues --    0.55584   0.56734   0.56968   0.57852   0.58438
 Alpha virt. eigenvalues --    0.61391   0.62390   0.62540   0.62970   0.63858
 Alpha virt. eigenvalues --    0.65149   0.65449   0.66498   0.67429   0.67739
 Alpha virt. eigenvalues --    0.68265   0.69072   0.70555   0.71627   0.72254
 Alpha virt. eigenvalues --    0.72386   0.72651   0.72943   0.73618   0.73738
 Alpha virt. eigenvalues --    0.74437   0.74797   0.75414   0.75946   0.76224
 Alpha virt. eigenvalues --    0.77215   0.77942   0.78495   0.78887   0.79172
 Alpha virt. eigenvalues --    0.80289   0.80291   0.81706   0.82462   0.83343
 Alpha virt. eigenvalues --    0.84267   0.84692   0.85172   0.85359   0.86930
 Alpha virt. eigenvalues --    0.87462   0.87602   0.88481   0.88667   0.89200
 Alpha virt. eigenvalues --    0.90584   0.91499   0.91564   0.92604   0.93268
 Alpha virt. eigenvalues --    0.93863   0.94357   0.94864   0.94877   0.96491
 Alpha virt. eigenvalues --    0.96633   0.98834   0.99063   0.99577   1.00695
 Alpha virt. eigenvalues --    1.01726   1.01757   1.03431   1.04507   1.05411
 Alpha virt. eigenvalues --    1.05622   1.06810   1.07544   1.08595   1.09082
 Alpha virt. eigenvalues --    1.09762   1.10031   1.10522   1.11187   1.11912
 Alpha virt. eigenvalues --    1.12280   1.12940   1.14201   1.15280   1.16235
 Alpha virt. eigenvalues --    1.17267   1.18201   1.19326   1.20086   1.20093
 Alpha virt. eigenvalues --    1.20827   1.21865   1.23303   1.23701   1.25291
 Alpha virt. eigenvalues --    1.26331   1.26867   1.29835   1.30037   1.31057
 Alpha virt. eigenvalues --    1.32005   1.32172   1.33362   1.34201   1.36331
 Alpha virt. eigenvalues --    1.36389   1.38164   1.39108   1.39998   1.40094
 Alpha virt. eigenvalues --    1.40820   1.44563   1.45461   1.45945   1.46716
 Alpha virt. eigenvalues --    1.46860   1.48784   1.49788   1.50695   1.51759
 Alpha virt. eigenvalues --    1.53128   1.53216   1.54847   1.55806   1.55858
 Alpha virt. eigenvalues --    1.57273   1.59053   1.59580   1.60081   1.62160
 Alpha virt. eigenvalues --    1.63052   1.63173   1.64227   1.65749   1.66273
 Alpha virt. eigenvalues --    1.68408   1.68551   1.69751   1.69862   1.70001
 Alpha virt. eigenvalues --    1.70378   1.71580   1.73776   1.76700   1.77443
 Alpha virt. eigenvalues --    1.79100   1.80826   1.81970   1.82799   1.83972
 Alpha virt. eigenvalues --    1.84233   1.85865   1.86360   1.88840   1.89071
 Alpha virt. eigenvalues --    1.90497   1.91945   1.92002   1.93432   1.94323
 Alpha virt. eigenvalues --    1.96241   1.97023   1.98709   1.98861   1.99213
 Alpha virt. eigenvalues --    2.02157   2.03672   2.06486   2.07553   2.09019
 Alpha virt. eigenvalues --    2.09818   2.10928   2.11481   2.12522   2.12801
 Alpha virt. eigenvalues --    2.15716   2.17275   2.19971   2.20127   2.22207
 Alpha virt. eigenvalues --    2.24678   2.26813   2.27974   2.30137   2.30986
 Alpha virt. eigenvalues --    2.32172   2.35365   2.36318   2.36766   2.38980
 Alpha virt. eigenvalues --    2.40960   2.41110   2.43969   2.45160   2.46816
 Alpha virt. eigenvalues --    2.47808   2.51493   2.52472   2.53910   2.57250
 Alpha virt. eigenvalues --    2.57603   2.57963   2.61807   2.64795   2.66013
 Alpha virt. eigenvalues --    2.67850   2.68765   2.69096   2.70535   2.72570
 Alpha virt. eigenvalues --    2.73689   2.76594   2.77457   2.79377   2.80561
 Alpha virt. eigenvalues --    2.81172   2.82413   2.82713   2.84800   2.84809
 Alpha virt. eigenvalues --    2.86458   2.90517   2.91506   2.91558   2.93017
 Alpha virt. eigenvalues --    2.94850   2.95126   2.96384   2.98996   2.99331
 Alpha virt. eigenvalues --    3.00064   3.01399   3.02216   3.02816   3.03570
 Alpha virt. eigenvalues --    3.05224   3.09766   3.10121   3.10580   3.11703
 Alpha virt. eigenvalues --    3.12280   3.13530   3.16601   3.17016   3.18613
 Alpha virt. eigenvalues --    3.18955   3.19908   3.21224   3.21994   3.22067
 Alpha virt. eigenvalues --    3.25488   3.25864   3.26837   3.28008   3.28443
 Alpha virt. eigenvalues --    3.31711   3.31891   3.35190   3.35210   3.36644
 Alpha virt. eigenvalues --    3.37992   3.39019   3.39947   3.40485   3.41989
 Alpha virt. eigenvalues --    3.42673   3.44316   3.44816   3.45810   3.46555
 Alpha virt. eigenvalues --    3.48039   3.48901   3.49317   3.50338   3.52459
 Alpha virt. eigenvalues --    3.52745   3.55847   3.56240   3.56453   3.56962
 Alpha virt. eigenvalues --    3.57887   3.60895   3.61614   3.64446   3.64829
 Alpha virt. eigenvalues --    3.65367   3.68191   3.70550   3.71394   3.72302
 Alpha virt. eigenvalues --    3.73533   3.74651   3.75945   3.76890   3.77461
 Alpha virt. eigenvalues --    3.82260   3.83006   3.83468   3.86048   3.87375
 Alpha virt. eigenvalues --    3.87799   3.90514   3.90717   3.93696   3.94590
 Alpha virt. eigenvalues --    3.97298   3.97477   3.99556   3.99948   4.00634
 Alpha virt. eigenvalues --    4.01949   4.04801   4.05279   4.06485   4.08894
 Alpha virt. eigenvalues --    4.08987   4.10708   4.11300   4.12620   4.15053
 Alpha virt. eigenvalues --    4.16011   4.19136   4.20254   4.20750   4.22551
 Alpha virt. eigenvalues --    4.24898   4.27066   4.29418   4.31331   4.31866
 Alpha virt. eigenvalues --    4.33353   4.36059   4.38385   4.40110   4.41473
 Alpha virt. eigenvalues --    4.43066   4.44626   4.49042   4.52589   4.54034
 Alpha virt. eigenvalues --    4.55826   4.58814   4.59481   4.62548   4.63742
 Alpha virt. eigenvalues --    4.64442   4.68379   4.68979   4.70308   4.73750
 Alpha virt. eigenvalues --    4.73773   4.76055   4.77261   4.79913   4.80299
 Alpha virt. eigenvalues --    4.82274   4.83889   4.85460   4.90814   4.91384
 Alpha virt. eigenvalues --    4.98013   4.99112   5.00067   5.02140   5.05353
 Alpha virt. eigenvalues --    5.07937   5.08271   5.14369   5.16616   5.21908
 Alpha virt. eigenvalues --    5.24475   5.29199   5.32627   5.35734   5.36514
 Alpha virt. eigenvalues --    5.44408   5.44839   5.52165   5.60598   5.66563
 Alpha virt. eigenvalues --    5.69193   5.74779   5.77707   5.79902   5.83308
 Alpha virt. eigenvalues --    5.91235   5.94971   6.01113   6.15682   6.22503
 Alpha virt. eigenvalues --    6.24614   6.26661   6.30755   6.36037   6.42075
 Alpha virt. eigenvalues --    6.42358   6.46348   6.53793   6.54070   6.59166
 Alpha virt. eigenvalues --    6.63109   6.70663   6.74676   6.76945   6.81940
 Alpha virt. eigenvalues --    6.86357   6.86717   6.89946   6.95590   6.98833
 Alpha virt. eigenvalues --    7.09158   7.10354   7.13505   7.13760   7.20000
 Alpha virt. eigenvalues --    7.31797   7.40423   7.50536   7.65067   7.87184
 Alpha virt. eigenvalues --    8.05643   8.45031   8.46872   8.56175   8.57859
 Alpha virt. eigenvalues --    8.70305   8.70704   8.76363   8.77056   8.83095
 Alpha virt. eigenvalues --    8.84534   8.85214   8.88494   8.95668   8.96508
 Alpha virt. eigenvalues --    9.00005   9.01091   9.04655   9.06034   9.06585
 Alpha virt. eigenvalues --    9.10609   9.37946   9.39785   9.42848   9.49040
 Alpha virt. eigenvalues --   15.06377  15.37053  15.53167  16.07447  17.11125
 Alpha virt. eigenvalues --   17.49793  18.57001  19.19252  20.05606  20.12766
 Alpha virt. eigenvalues --   20.39773
          Condensed to atoms (all electrons):
               1          2          3          4          5          6
     1  C    6.876592  -0.489275  -0.037930   0.106121  -0.388940   0.057365
     2  C   -0.489275   7.159369   0.105120   0.006157   0.042509  -0.246596
     3  F   -0.037930   0.105120   9.654388  -0.164038  -0.004237   0.004780
     4  C    0.106121   0.006157  -0.164038   6.974541  -0.213368   0.034327
     5  C   -0.388940   0.042509  -0.004237  -0.213368   6.651476  -0.225885
     6  C    0.057365  -0.246596   0.004780   0.034327  -0.225885   6.861880
     7  C   -0.652911  -0.246220   0.023625  -0.239076   0.106229   0.117039
     8  F   -0.057558   0.024807   0.002626   0.002976  -0.000496  -0.149895
     9  C   -0.662817  -0.422899   0.006196   0.069135   0.098830   0.046314
    10  O   -0.142251  -0.008956  -0.000891   0.016111  -0.011061  -0.000944
    11  O   -0.075527  -0.025699  -0.034892  -0.001917   0.001833  -0.002268
    12  H   -0.082920  -0.495148  -0.029802   0.415907  -0.315673  -0.022584
    13  H    0.025769   0.040099   0.004474  -0.356618   0.451489  -0.338802
    14  H   -0.077325   0.035047  -0.002436  -0.012435  -0.269030   0.412626
    15  H    0.005486  -0.008661   0.005675  -0.001112   0.000637  -0.000785
               7          8          9         10         11         12
     1  C   -0.652911  -0.057558  -0.662817  -0.142251  -0.075527  -0.082920
     2  C   -0.246220   0.024807  -0.422899  -0.008956  -0.025699  -0.495148
     3  F    0.023625   0.002626   0.006196  -0.000891  -0.034892  -0.029802
     4  C   -0.239076   0.002976   0.069135   0.016111  -0.001917   0.415907
     5  C    0.106229  -0.000496   0.098830  -0.011061   0.001833  -0.315673
     6  C    0.117039  -0.149895   0.046314  -0.000944  -0.002268  -0.022584
     7  C    7.284230   0.062635  -0.370401  -0.020672   0.020545   0.048157
     8  F    0.062635   9.625493   0.045723  -0.016678  -0.001178  -0.001971
     9  C   -0.370401   0.045723   7.157741   0.059700   0.080938   0.023358
    10  O   -0.020672  -0.016678   0.059700   9.187217  -0.096918  -0.000703
    11  O    0.020545  -0.001178   0.080938  -0.096918   8.545347  -0.003716
    12  H    0.048157  -0.001971   0.023358  -0.000703  -0.003716   1.393795
    13  H    0.042579   0.003968  -0.012517   0.000717   0.000885  -0.354658
    14  H   -0.501389  -0.016016   0.011280  -0.002803  -0.000667   0.032664
    15  H   -0.007193  -0.001025   0.071943  -0.105237   0.134239   0.000338
              13         14         15
     1  C    0.025769  -0.077325   0.005486
     2  C    0.040099   0.035047  -0.008661
     3  F    0.004474  -0.002436   0.005675
     4  C   -0.356618  -0.012435  -0.001112
     5  C    0.451489  -0.269030   0.000637
     6  C   -0.338802   0.412626  -0.000785
     7  C    0.042579  -0.501389  -0.007193
     8  F    0.003968  -0.016016  -0.001025
     9  C   -0.012517   0.011280   0.071943
    10  O    0.000717  -0.002803  -0.105237
    11  O    0.000885  -0.000667   0.134239
    12  H   -0.354658   0.032664   0.000338
    13  H    1.602699  -0.351655  -0.000108
    14  H   -0.351655   1.353507   0.000060
    15  H   -0.000108   0.000060   0.624417
 Mulliken charges:
               1
     1  C    1.596120
     2  C    0.530348
     3  F   -0.532658
     4  C   -0.636709
     5  C    0.075686
     6  C   -0.546571
     7  C    0.332824
     8  F   -0.523411
     9  C   -0.202525
    10  O   -0.856631
    11  O   -0.541005
    12  H    0.392957
    13  H    0.241678
    14  H    0.388571
    15  H    0.281326
 Sum of Mulliken charges =   0.00000
 Mulliken charges with hydrogens summed into heavy atoms:
               1
     1  C    1.596120
     2  C    0.530348
     3  F   -0.532658
     4  C   -0.243752
     5  C    0.317364
     6  C   -0.158001
     7  C    0.332824
     8  F   -0.523411
     9  C   -0.202525
    10  O   -0.856631
    11  O   -0.259679
 Electronic spatial extent (au):  <R**2>=           1474.5887
 Charge=              0.0000 electrons
 Dipole moment (field-independent basis, Debye):
    X=             -2.9722    Y=             -1.7214    Z=              0.0017  Tot=              3.4347
 Quadrupole moment (field-independent basis, Debye-Ang):
   XX=            -48.5805   YY=            -67.2653   ZZ=            -60.8941
   XY=             -3.2698   XZ=              0.0050   YZ=              0.0034
 Traceless Quadrupole moment (field-independent basis, Debye-Ang):
   XX=             10.3328   YY=             -8.3520   ZZ=             -1.9808
   XY=             -3.2698   XZ=              0.0050   YZ=              0.0034
 Octapole moment (field-independent basis, Debye-Ang**2):
  XXX=             21.3047  YYY=             -5.4434  ZZZ=             -0.0031  XYY=            -14.1335
  XXY=            -13.4461  XXZ=              0.0144  XZZ=             10.4452  YZZ=              1.2366
  YYZ=              0.0015  XYZ=              0.0055
 Hexadecapole moment (field-independent basis, Debye-Ang**3):
 XXXX=           -798.8048 YYYY=           -694.9279 ZZZZ=            -58.6861 XXXY=            -53.7107
 XXXZ=              0.0503 YYYX=             -7.6550 YYYZ=              0.0086 ZZZX=              0.0010
 ZZZY=              0.0067 XXYY=           -284.4169 XXZZ=           -193.2921 YYZZ=           -122.6425
 XXYZ=              0.0171 YYXZ=              0.0074 ZZXY=             -3.6206
 N-N= 6.164851160895D+02 E-N=-2.689436421346D+03  KE= 6.171948660017D+02
 ******************************Gaussian NBO Version 3.1******************************
             N A T U R A L   A T O M I C   O R B I T A L   A N D
          N A T U R A L   B O N D   O R B I T A L   A N A L Y S I S
 ******************************Gaussian NBO Version 3.1******************************
       /RESON  / : Allow strongly delocalized NBO set

 Analyzing the SCF density

 Job title: 17                                                              

 Storage needed:   1075324 in NPA,   1432481 in NBO (********** available)
 GSVD:  LWork=        8164 too small for GESVD, short by      686972 words or      686972 for optimal perf.


 NATURAL POPULATIONS:  Natural atomic orbital occupancies 
                                                          
   NAO  Atom  No  lang   Type(AO)    Occupancy      Energy
 ----------------------------------------------------------
     1    C    1  S      Cor( 1S)     1.99864     -10.40608
     2    C    1  S      Val( 2S)     0.91420      -0.16095
     3    C    1  S      Ryd( 3S)     0.00074       2.01135
     4    C    1  S      Ryd( 4S)     0.00009       2.55612
     5    C    1  S      Ryd( 5S)     0.00004       3.74081
     6    C    1  px     Val( 2p)     1.12663      -0.14712
     7    C    1  px     Ryd( 5p)     0.00370       2.52715
     8    C    1  px     Ryd( 4p)     0.00010       2.44877
     9    C    1  px     Ryd( 3p)     0.00006       1.32468
    10    C    1  py     Val( 2p)     1.12982      -0.13883
    11    C    1  py     Ryd( 4p)     0.00523       2.25322
    12    C    1  py     Ryd( 5p)     0.00014       2.69513
    13    C    1  py     Ryd( 3p)     0.00004       1.19229
    14    C    1  pz     Val( 2p)     1.14086      -0.17055
    15    C    1  pz     Ryd( 4p)     0.00124       1.02191
    16    C    1  pz     Ryd( 5p)     0.00018       1.85278
    17    C    1  pz     Ryd( 3p)     0.00008       0.63202
    18    C    1  dxy    Ryd( 3d)     0.00088       3.42733
    19    C    1  dxy    Ryd( 4d)     0.00043       3.68269
    20    C    1  dxy    Ryd( 5d)     0.00006       5.40893
    21    C    1  dxz    Ryd( 3d)     0.00022       1.69631
    22    C    1  dxz    Ryd( 5d)     0.00003       2.94474
    23    C    1  dxz    Ryd( 4d)     0.00002       2.20001
    24    C    1  dyz    Ryd( 3d)     0.00057       1.61771
    25    C    1  dyz    Ryd( 5d)     0.00005       2.87134
    26    C    1  dyz    Ryd( 4d)     0.00001       2.30712
    27    C    1  dx2y2  Ryd( 3d)     0.00141       3.49375
    28    C    1  dx2y2  Ryd( 4d)     0.00041       3.88017
    29    C    1  dx2y2  Ryd( 5d)     0.00004       5.13358
    30    C    1  dz2    Ryd( 3d)     0.00075       2.18780
    31    C    1  dz2    Ryd( 4d)     0.00022       3.43928
    32    C    1  dz2    Ryd( 5d)     0.00008       4.00438
    33    C    1  f(0)   Ryd( 4f)     0.00069       1.69827
    34    C    1  f(0)   Ryd( 5f)     0.00027       3.28290
    35    C    1  f(C1)  Ryd( 4f)     0.00055       2.09021
    36    C    1  f(C1)  Ryd( 5f)     0.00050       3.45128
    37    C    1  f(S1)  Ryd( 4f)     0.00051       2.04829
    38    C    1  f(S1)  Ryd( 5f)     0.00040       3.51066
    39    C    1  f(C2)  Ryd( 4f)     0.00063       1.69009
    40    C    1  f(C2)  Ryd( 5f)     0.00005       3.14201
    41    C    1  f(S2)  Ryd( 4f)     0.00067       1.59437
    42    C    1  f(S2)  Ryd( 5f)     0.00008       3.27689
    43    C    1  f(C3)  Ryd( 4f)     0.00140       2.81525
    44    C    1  f(C3)  Ryd( 5f)     0.00013       4.92579
    45    C    1  f(S3)  Ryd( 4f)     0.00142       2.74405
    46    C    1  f(S3)  Ryd( 5f)     0.00030       4.15786
 
    47    C    2  S      Cor( 1S)     1.99838     -10.51027
    48    C    2  S      Val( 2S)     0.82437      -0.15569
    49    C    2  S      Ryd( 4S)     0.00191       2.34602
    50    C    2  S      Ryd( 3S)     0.00011       2.06760
    51    C    2  S      Ryd( 5S)     0.00002       2.55773
    52    C    2  px     Val( 2p)     0.94430      -0.09522
    53    C    2  px     Ryd( 4p)     0.00483       1.82193
    54    C    2  px     Ryd( 5p)     0.00013       1.93363
    55    C    2  px     Ryd( 3p)     0.00009       1.64157
    56    C    2  py     Val( 2p)     0.78402      -0.05806
    57    C    2  py     Ryd( 5p)     0.00689       1.73418
    58    C    2  py     Ryd( 4p)     0.00012       1.69305
    59    C    2  py     Ryd( 3p)     0.00007       1.68035
    60    C    2  pz     Val( 2p)     0.93946      -0.15808
    61    C    2  pz     Ryd( 4p)     0.00070       1.11462
    62    C    2  pz     Ryd( 5p)     0.00032       1.18684
    63    C    2  pz     Ryd( 3p)     0.00009       0.89258
    64    C    2  dxy    Ryd( 3d)     0.00086       3.10892
    65    C    2  dxy    Ryd( 4d)     0.00052       3.27123
    66    C    2  dxy    Ryd( 5d)     0.00009       4.05784
    67    C    2  dxz    Ryd( 3d)     0.00159       1.74153
    68    C    2  dxz    Ryd( 5d)     0.00009       2.49500
    69    C    2  dxz    Ryd( 4d)     0.00005       2.34582
    70    C    2  dyz    Ryd( 3d)     0.00230       1.68862
    71    C    2  dyz    Ryd( 5d)     0.00009       2.56088
    72    C    2  dyz    Ryd( 4d)     0.00007       2.14700
    73    C    2  dx2y2  Ryd( 4d)     0.00220       3.49501
    74    C    2  dx2y2  Ryd( 3d)     0.00023       3.39726
    75    C    2  dx2y2  Ryd( 5d)     0.00013       4.03512
    76    C    2  dz2    Ryd( 3d)     0.00061       2.40796
    77    C    2  dz2    Ryd( 4d)     0.00039       3.30419
    78    C    2  dz2    Ryd( 5d)     0.00013       3.46949
    79    C    2  f(0)   Ryd( 4f)     0.00006       1.32372
    80    C    2  f(0)   Ryd( 5f)     0.00026       3.63755
    81    C    2  f(C1)  Ryd( 4f)     0.00031       1.62821
    82    C    2  f(C1)  Ryd( 5f)     0.00030       3.83772
    83    C    2  f(S1)  Ryd( 4f)     0.00038       1.47238
    84    C    2  f(S1)  Ryd( 5f)     0.00024       3.79906
    85    C    2  f(C2)  Ryd( 4f)     0.00026       1.18129
    86    C    2  f(C2)  Ryd( 5f)     0.00003       3.64999
    87    C    2  f(S2)  Ryd( 4f)     0.00052       1.32528
    88    C    2  f(S2)  Ryd( 5f)     0.00009       3.70696
    89    C    2  f(C3)  Ryd( 4f)     0.00060       2.18734
    90    C    2  f(C3)  Ryd( 5f)     0.00011       4.41467
    91    C    2  f(S3)  Ryd( 4f)     0.00198       1.92103
    92    C    2  f(S3)  Ryd( 5f)     0.00016       4.76664
 
    93    F    3  S      Cor( 1S)     1.99993     -25.00913
    94    F    3  S      Val( 2S)     1.81801      -1.41431
    95    F    3  S      Ryd( 4S)     0.00088       2.36089
    96    F    3  S      Ryd( 3S)     0.00004       2.13559
    97    F    3  S      Ryd( 5S)     0.00001      11.03554
    98    F    3  px     Val( 2p)     1.86908      -0.52687
    99    F    3  px     Ryd( 3p)     0.00120       0.92969
   100    F    3  px     Ryd( 4p)     0.00028       1.47208
   101    F    3  px     Ryd( 5p)     0.00004       5.39456
   102    F    3  py     Val( 2p)     1.69141      -0.50738
   103    F    3  py     Ryd( 3p)     0.00050       0.91468
   104    F    3  py     Ryd( 4p)     0.00022       1.24801
   105    F    3  py     Ryd( 5p)     0.00003       5.85476
   106    F    3  pz     Val( 2p)     1.91987      -0.53355
   107    F    3  pz     Ryd( 3p)     0.00131       0.77076
   108    F    3  pz     Ryd( 4p)     0.00004       0.93404
   109    F    3  pz     Ryd( 5p)     0.00000       4.78977
   110    F    3  dxy    Ryd( 3d)     0.00112       3.89803
   111    F    3  dxy    Ryd( 4d)     0.00009       4.22021
   112    F    3  dxy    Ryd( 5d)     0.00000       8.88792
   113    F    3  dxz    Ryd( 4d)     0.00033       2.79065
   114    F    3  dxz    Ryd( 3d)     0.00005       2.00847
   115    F    3  dxz    Ryd( 5d)     0.00000       8.62753
   116    F    3  dyz    Ryd( 4d)     0.00079       2.90328
   117    F    3  dyz    Ryd( 3d)     0.00005       2.25217
   118    F    3  dyz    Ryd( 5d)     0.00001       8.65808
   119    F    3  dx2y2  Ryd( 4d)     0.00082       3.44513
   120    F    3  dx2y2  Ryd( 3d)     0.00003       3.10422
   121    F    3  dx2y2  Ryd( 5d)     0.00002       8.90600
   122    F    3  dz2    Ryd( 4d)     0.00044       3.58418
   123    F    3  dz2    Ryd( 3d)     0.00003       3.58159
   124    F    3  dz2    Ryd( 5d)     0.00000       8.74385
   125    F    3  f(0)   Ryd( 4f)     0.00006       3.70711
   126    F    3  f(0)   Ryd( 5f)     0.00000       7.80254
   127    F    3  f(C1)  Ryd( 4f)     0.00002       3.76606
   128    F    3  f(C1)  Ryd( 5f)     0.00001       7.89446
   129    F    3  f(S1)  Ryd( 4f)     0.00005       3.82940
   130    F    3  f(S1)  Ryd( 5f)     0.00001       7.99728
   131    F    3  f(C2)  Ryd( 4f)     0.00003       3.71216
   132    F    3  f(C2)  Ryd( 5f)     0.00000       8.01500
   133    F    3  f(S2)  Ryd( 4f)     0.00008       3.72344
   134    F    3  f(S2)  Ryd( 5f)     0.00002       7.91359
   135    F    3  f(C3)  Ryd( 4f)     0.00008       4.00653
   136    F    3  f(C3)  Ryd( 5f)     0.00002       8.25953
   137    F    3  f(S3)  Ryd( 4f)     0.00008       3.98157
   138    F    3  f(S3)  Ryd( 5f)     0.00002       8.25596
 
   139    C    4  S      Cor( 1S)     1.99903     -10.39326
   140    C    4  S      Val( 2S)     0.95800      -0.21225
   141    C    4  S      Ryd( 4S)     0.00160       1.79688
   142    C    4  S      Ryd( 5S)     0.00009       3.05678
   143    C    4  S      Ryd( 3S)     0.00003       1.77186
   144    C    4  px     Val( 2p)     1.07902      -0.10145
   145    C    4  px     Ryd( 5p)     0.00373       1.81864
   146    C    4  px     Ryd( 4p)     0.00003       1.67379
   147    C    4  px     Ryd( 3p)     0.00008       1.21531
   148    C    4  py     Val( 2p)     1.18161      -0.11554
   149    C    4  py     Ryd( 4p)     0.00422       1.78377
   150    C    4  py     Ryd( 5p)     0.00006       1.80941
   151    C    4  py     Ryd( 3p)     0.00008       1.48747
   152    C    4  pz     Val( 2p)     1.05224      -0.14942
   153    C    4  pz     Ryd( 4p)     0.00085       1.02994
   154    C    4  pz     Ryd( 5p)     0.00009       1.22983
   155    C    4  pz     Ryd( 3p)     0.00001       0.91698
   156    C    4  dxy    Ryd( 4d)     0.00192       2.71442
   157    C    4  dxy    Ryd( 5d)     0.00028       3.80806
   158    C    4  dxy    Ryd( 3d)     0.00010       2.69397
   159    C    4  dxz    Ryd( 3d)     0.00049       1.34082
   160    C    4  dxz    Ryd( 5d)     0.00002       3.07550
   161    C    4  dxz    Ryd( 4d)     0.00002       1.56226
   162    C    4  dyz    Ryd( 3d)     0.00044       1.36631
   163    C    4  dyz    Ryd( 5d)     0.00004       3.06647
   164    C    4  dyz    Ryd( 4d)     0.00006       1.43681
   165    C    4  dx2y2  Ryd( 4d)     0.00271       2.92069
   166    C    4  dx2y2  Ryd( 5d)     0.00018       3.91352
   167    C    4  dx2y2  Ryd( 3d)     0.00004       2.37736
   168    C    4  dz2    Ryd( 3d)     0.00122       1.77698
   169    C    4  dz2    Ryd( 5d)     0.00011       3.98027
   170    C    4  dz2    Ryd( 4d)     0.00008       3.33404
   171    C    4  f(0)   Ryd( 5f)     0.00017       3.51176
   172    C    4  f(0)   Ryd( 4f)     0.00003       2.07979
   173    C    4  f(C1)  Ryd( 5f)     0.00028       3.79685
   174    C    4  f(C1)  Ryd( 4f)     0.00004       2.76104
   175    C    4  f(S1)  Ryd( 5f)     0.00023       3.70083
   176    C    4  f(S1)  Ryd( 4f)     0.00003       2.83653
   177    C    4  f(C2)  Ryd( 5f)     0.00001       3.63461
   178    C    4  f(C2)  Ryd( 4f)     0.00001       2.20392
   179    C    4  f(S2)  Ryd( 5f)     0.00001       3.64423
   180    C    4  f(S2)  Ryd( 4f)     0.00002       2.34938
   181    C    4  f(C3)  Ryd( 4f)     0.00016       4.26614
   182    C    4  f(C3)  Ryd( 5f)     0.00006       5.66690
   183    C    4  f(S3)  Ryd( 5f)     0.00007       4.39856
   184    C    4  f(S3)  Ryd( 4f)     0.00012       3.89240
 
   185    C    5  S      Cor( 1S)     1.99912     -10.40621
   186    C    5  S      Val( 2S)     0.94883      -0.22200
   187    C    5  S      Ryd( 3S)     0.00140       2.03398
   188    C    5  S      Ryd( 5S)     0.00007       2.57424
   189    C    5  S      Ryd( 4S)     0.00002       2.31018
   190    C    5  px     Val( 2p)     1.18036      -0.10603
   191    C    5  px     Ryd( 4p)     0.00474       1.72805
   192    C    5  px     Ryd( 5p)     0.00003       1.82315
   193    C    5  px     Ryd( 3p)     0.00002       1.47682
   194    C    5  py     Val( 2p)     1.05261      -0.08642
   195    C    5  py     Ryd( 5p)     0.00434       1.73994
   196    C    5  py     Ryd( 4p)     0.00001       1.40671
   197    C    5  py     Ryd( 3p)     0.00003       1.06906
   198    C    5  pz     Val( 2p)     0.94190      -0.14196
   199    C    5  pz     Ryd( 4p)     0.00035       1.04442
   200    C    5  pz     Ryd( 5p)     0.00005       1.19969
   201    C    5  pz     Ryd( 3p)     0.00000       0.92417
   202    C    5  dxy    Ryd( 4d)     0.00229       3.39587
   203    C    5  dxy    Ryd( 5d)     0.00027       3.98696
   204    C    5  dxy    Ryd( 3d)     0.00005       1.30517
   205    C    5  dxz    Ryd( 4d)     0.00045       1.39947
   206    C    5  dxz    Ryd( 5d)     0.00004       3.10435
   207    C    5  dxz    Ryd( 3d)     0.00006       1.15816
   208    C    5  dyz    Ryd( 4d)     0.00082       1.41912
   209    C    5  dyz    Ryd( 5d)     0.00000       3.03922
   210    C    5  dyz    Ryd( 3d)     0.00002       1.33885
   211    C    5  dx2y2  Ryd( 3d)     0.00170       2.28250
   212    C    5  dx2y2  Ryd( 5d)     0.00017       3.70836
   213    C    5  dx2y2  Ryd( 4d)     0.00006       2.40860
   214    C    5  dz2    Ryd( 3d)     0.00096       2.02830
   215    C    5  dz2    Ryd( 5d)     0.00004       3.96602
   216    C    5  dz2    Ryd( 4d)     0.00012       3.12765
   217    C    5  f(0)   Ryd( 5f)     0.00009       3.53076
   218    C    5  f(0)   Ryd( 4f)     0.00001       1.98576
   219    C    5  f(C1)  Ryd( 5f)     0.00018       3.70763
   220    C    5  f(C1)  Ryd( 4f)     0.00003       2.58510
   221    C    5  f(S1)  Ryd( 5f)     0.00027       3.73371
   222    C    5  f(S1)  Ryd( 4f)     0.00002       2.74062
   223    C    5  f(C2)  Ryd( 5f)     0.00000       3.68636
   224    C    5  f(C2)  Ryd( 4f)     0.00003       2.03105
   225    C    5  f(S2)  Ryd( 5f)     0.00002       3.62776
   226    C    5  f(S2)  Ryd( 4f)     0.00000       2.24860
   227    C    5  f(C3)  Ryd( 4f)     0.00013       4.36942
   228    C    5  f(C3)  Ryd( 5f)     0.00006       5.12640
   229    C    5  f(S3)  Ryd( 5f)     0.00007       4.41294
   230    C    5  f(S3)  Ryd( 4f)     0.00012       4.14385
 
   231    C    6  S      Cor( 1S)     1.99903     -10.39374
   232    C    6  S      Val( 2S)     0.95862      -0.21272
   233    C    6  S      Ryd( 4S)     0.00158       1.79462
   234    C    6  S      Ryd( 5S)     0.00009       3.03270
   235    C    6  S      Ryd( 3S)     0.00003       1.77533
   236    C    6  px     Val( 2p)     1.10038      -0.10525
   237    C    6  px     Ryd( 5p)     0.00360       1.81827
   238    C    6  px     Ryd( 4p)     0.00003       1.71148
   239    C    6  px     Ryd( 3p)     0.00006       1.29531
   240    C    6  py     Val( 2p)     1.16003      -0.11171
   241    C    6  py     Ryd( 5p)     0.00426       1.78118
   242    C    6  py     Ryd( 4p)     0.00006       1.74545
   243    C    6  py     Ryd( 3p)     0.00010       1.45825
   244    C    6  pz     Val( 2p)     1.05041      -0.14905
   245    C    6  pz     Ryd( 4p)     0.00081       1.02983
   246    C    6  pz     Ryd( 5p)     0.00009       1.21525
   247    C    6  pz     Ryd( 3p)     0.00001       0.94736
   248    C    6  dxy    Ryd( 3d)     0.00169       2.22277
   249    C    6  dxy    Ryd( 5d)     0.00025       3.63672
   250    C    6  dxy    Ryd( 4d)     0.00010       3.17668
   251    C    6  dxz    Ryd( 3d)     0.00063       1.30895
   252    C    6  dxz    Ryd( 5d)     0.00003       3.05620
   253    C    6  dxz    Ryd( 4d)     0.00004       1.52933
   254    C    6  dyz    Ryd( 3d)     0.00038       1.39634
   255    C    6  dyz    Ryd( 5d)     0.00003       3.01520
   256    C    6  dyz    Ryd( 4d)     0.00004       1.55505
   257    C    6  dx2y2  Ryd( 4d)     0.00297       3.38056
   258    C    6  dx2y2  Ryd( 5d)     0.00022       3.97646
   259    C    6  dx2y2  Ryd( 3d)     0.00004       2.04414
   260    C    6  dz2    Ryd( 3d)     0.00121       1.76765
   261    C    6  dz2    Ryd( 5d)     0.00011       4.00091
   262    C    6  dz2    Ryd( 4d)     0.00008       3.35665
   263    C    6  f(0)   Ryd( 5f)     0.00018       3.50837
   264    C    6  f(0)   Ryd( 4f)     0.00003       2.08577
   265    C    6  f(C1)  Ryd( 5f)     0.00025       3.76212
   266    C    6  f(C1)  Ryd( 4f)     0.00005       2.70026
   267    C    6  f(S1)  Ryd( 5f)     0.00026       3.72816
   268    C    6  f(S1)  Ryd( 4f)     0.00002       2.90890
   269    C    6  f(C2)  Ryd( 5f)     0.00001       3.59431
   270    C    6  f(C2)  Ryd( 4f)     0.00001       2.24655
   271    C    6  f(S2)  Ryd( 5f)     0.00002       3.68008
   272    C    6  f(S2)  Ryd( 4f)     0.00002       2.31662
   273    C    6  f(C3)  Ryd( 4f)     0.00014       4.26021
   274    C    6  f(C3)  Ryd( 5f)     0.00006       5.60292
   275    C    6  f(S3)  Ryd( 5f)     0.00009       4.38682
   276    C    6  f(S3)  Ryd( 4f)     0.00011       3.95611
 
   277    C    7  S      Cor( 1S)     1.99836     -10.51268
   278    C    7  S      Val( 2S)     0.82511      -0.15692
   279    C    7  S      Ryd( 4S)     0.00198       2.34583
   280    C    7  S      Ryd( 3S)     0.00011       2.04120
   281    C    7  S      Ryd( 5S)     0.00002       2.47417
   282    C    7  px     Val( 2p)     1.00960      -0.09295
   283    C    7  px     Ryd( 5p)     0.00414       1.85391
   284    C    7  px     Ryd( 4p)     0.00015       1.84339
   285    C    7  px     Ryd( 3p)     0.00008       1.53261
   286    C    7  py     Val( 2p)     0.71288      -0.05438
   287    C    7  py     Ryd( 3p)     0.00776       1.69593
   288    C    7  py     Ryd( 5p)     0.00008       1.79195
   289    C    7  py     Ryd( 4p)     0.00009       1.72837
   290    C    7  pz     Val( 2p)     0.93083      -0.15558
   291    C    7  pz     Ryd( 4p)     0.00053       1.11860
   292    C    7  pz     Ryd( 5p)     0.00033       1.17913
   293    C    7  pz     Ryd( 3p)     0.00009       0.89822
   294    C    7  dxy    Ryd( 4d)     0.00170       3.51180
   295    C    7  dxy    Ryd( 3d)     0.00036       3.29748
   296    C    7  dxy    Ryd( 5d)     0.00008       3.95689
   297    C    7  dxz    Ryd( 3d)     0.00107       1.78903
   298    C    7  dxz    Ryd( 5d)     0.00007       2.45780
   299    C    7  dxz    Ryd( 4d)     0.00004       2.27796
   300    C    7  dyz    Ryd( 3d)     0.00257       1.73750
   301    C    7  dyz    Ryd( 5d)     0.00011       2.54906
   302    C    7  dyz    Ryd( 4d)     0.00007       2.10819
   303    C    7  dx2y2  Ryd( 3d)     0.00129       3.20102
   304    C    7  dx2y2  Ryd( 4d)     0.00037       3.40751
   305    C    7  dx2y2  Ryd( 5d)     0.00016       3.89334
   306    C    7  dz2    Ryd( 3d)     0.00054       2.50250
   307    C    7  dz2    Ryd( 4d)     0.00037       3.21491
   308    C    7  dz2    Ryd( 5d)     0.00013       3.41817
   309    C    7  f(0)   Ryd( 4f)     0.00009       1.32489
   310    C    7  f(0)   Ryd( 5f)     0.00025       3.63899
   311    C    7  f(C1)  Ryd( 4f)     0.00025       1.64019
   312    C    7  f(C1)  Ryd( 5f)     0.00032       3.86549
   313    C    7  f(S1)  Ryd( 4f)     0.00041       1.47055
   314    C    7  f(S1)  Ryd( 5f)     0.00023       3.77190
   315    C    7  f(C2)  Ryd( 4f)     0.00031       1.29646
   316    C    7  f(C2)  Ryd( 5f)     0.00009       3.70063
   317    C    7  f(S2)  Ryd( 4f)     0.00047       1.21962
   318    C    7  f(S2)  Ryd( 5f)     0.00004       3.65353
   319    C    7  f(C3)  Ryd( 4f)     0.00095       2.13745
   320    C    7  f(C3)  Ryd( 5f)     0.00013       4.48510
   321    C    7  f(S3)  Ryd( 4f)     0.00178       1.97930
   322    C    7  f(S3)  Ryd( 5f)     0.00014       4.67425
 
   323    F    8  S      Cor( 1S)     1.99993     -25.00466
   324    F    8  S      Val( 2S)     1.82050      -1.40618
   325    F    8  S      Ryd( 4S)     0.00094       2.37756
   326    F    8  S      Ryd( 3S)     0.00006       2.24563
   327    F    8  S      Ryd( 5S)     0.00001      10.98099
   328    F    8  px     Val( 2p)     1.93629      -0.52609
   329    F    8  px     Ryd( 3p)     0.00132       0.92161
   330    F    8  px     Ryd( 4p)     0.00023       1.61805
   331    F    8  px     Ryd( 5p)     0.00005       5.17037
   332    F    8  py     Val( 2p)     1.61840      -0.48951
   333    F    8  py     Ryd( 3p)     0.00029       0.89059
   334    F    8  py     Ryd( 4p)     0.00022       1.26816
   335    F    8  py     Ryd( 5p)     0.00003       5.98471
   336    F    8  pz     Val( 2p)     1.91604      -0.52463
   337    F    8  pz     Ryd( 3p)     0.00135       0.75645
   338    F    8  pz     Ryd( 4p)     0.00004       0.99054
   339    F    8  pz     Ryd( 5p)     0.00000       4.77161
   340    F    8  dxy    Ryd( 4d)     0.00087       3.58440
   341    F    8  dxy    Ryd( 3d)     0.00006       3.45177
   342    F    8  dxy    Ryd( 5d)     0.00001       8.85211
   343    F    8  dxz    Ryd( 4d)     0.00013       2.73552
   344    F    8  dxz    Ryd( 3d)     0.00004       1.95033
   345    F    8  dxz    Ryd( 5d)     0.00000       8.58425
   346    F    8  dyz    Ryd( 4d)     0.00098       2.96044
   347    F    8  dyz    Ryd( 3d)     0.00005       2.36783
   348    F    8  dyz    Ryd( 5d)     0.00001       8.64785
   349    F    8  dx2y2  Ryd( 3d)     0.00107       3.75060
   350    F    8  dx2y2  Ryd( 4d)     0.00006       3.86939
   351    F    8  dx2y2  Ryd( 5d)     0.00001       8.86493
   352    F    8  dz2    Ryd( 3d)     0.00043       3.57812
   353    F    8  dz2    Ryd( 4d)     0.00003       3.57988
   354    F    8  dz2    Ryd( 5d)     0.00000       8.71087
   355    F    8  f(0)   Ryd( 4f)     0.00006       3.72880
   356    F    8  f(0)   Ryd( 5f)     0.00000       7.79214
   357    F    8  f(C1)  Ryd( 4f)     0.00002       3.75684
   358    F    8  f(C1)  Ryd( 5f)     0.00001       7.82221
   359    F    8  f(S1)  Ryd( 4f)     0.00005       3.87772
   360    F    8  f(S1)  Ryd( 5f)     0.00001       8.04407
   361    F    8  f(C2)  Ryd( 4f)     0.00008       3.74095
   362    F    8  f(C2)  Ryd( 5f)     0.00001       7.92835
   363    F    8  f(S2)  Ryd( 4f)     0.00003       3.73776
   364    F    8  f(S2)  Ryd( 5f)     0.00001       7.98456
   365    F    8  f(C3)  Ryd( 4f)     0.00010       4.02131
   366    F    8  f(C3)  Ryd( 5f)     0.00001       8.23939
   367    F    8  f(S3)  Ryd( 4f)     0.00007       3.99056
   368    F    8  f(S3)  Ryd( 5f)     0.00002       8.24721
 
   369    C    9  S      Cor( 1S)     1.99918     -10.55269
   370    C    9  S      Val( 2S)     0.77612      -0.12085
   371    C    9  S      Ryd( 3S)     0.00426       1.92296
   372    C    9  S      Ryd( 4S)     0.00012       2.02822
   373    C    9  S      Ryd( 5S)     0.00007       2.25383
   374    C    9  px     Val( 2p)     0.89228      -0.05204
   375    C    9  px     Ryd( 5p)     0.00506       1.66190
   376    C    9  px     Ryd( 4p)     0.00028       1.31309
   377    C    9  px     Ryd( 3p)     0.00002       1.21510
   378    C    9  py     Val( 2p)     0.74018      -0.03360
   379    C    9  py     Ryd( 4p)     0.01304       1.62395
   380    C    9  py     Ryd( 3p)     0.00015       1.30137
   381    C    9  py     Ryd( 5p)     0.00008       1.73519
   382    C    9  pz     Val( 2p)     0.77234      -0.13486
   383    C    9  pz     Ryd( 5p)     0.00063       1.16041
   384    C    9  pz     Ryd( 3p)     0.00014       0.77607
   385    C    9  pz     Ryd( 4p)     0.00010       0.92066
   386    C    9  dxy    Ryd( 3d)     0.00096       3.09344
   387    C    9  dxy    Ryd( 4d)     0.00046       3.09747
   388    C    9  dxy    Ryd( 5d)     0.00006       3.20687
   389    C    9  dxz    Ryd( 5d)     0.00123       2.26711
   390    C    9  dxz    Ryd( 3d)     0.00011       2.19668
   391    C    9  dxz    Ryd( 4d)     0.00003       2.22296
   392    C    9  dyz    Ryd( 3d)     0.00209       2.28856
   393    C    9  dyz    Ryd( 4d)     0.00012       2.29387
   394    C    9  dyz    Ryd( 5d)     0.00005       2.39771
   395    C    9  dx2y2  Ryd( 4d)     0.00189       3.08162
   396    C    9  dx2y2  Ryd( 3d)     0.00017       2.67028
   397    C    9  dx2y2  Ryd( 5d)     0.00009       3.69445
   398    C    9  dz2    Ryd( 4d)     0.00040       3.21901
   399    C    9  dz2    Ryd( 3d)     0.00057       2.79853
   400    C    9  dz2    Ryd( 5d)     0.00010       3.27719
   401    C    9  f(0)   Ryd( 5f)     0.00013       3.53249
   402    C    9  f(0)   Ryd( 4f)     0.00002       2.38477
   403    C    9  f(C1)  Ryd( 5f)     0.00015       3.72155
   404    C    9  f(C1)  Ryd( 4f)     0.00002       3.21272
   405    C    9  f(S1)  Ryd( 5f)     0.00008       3.66192
   406    C    9  f(S1)  Ryd( 4f)     0.00005       3.33326
   407    C    9  f(C2)  Ryd( 5f)     0.00000       3.45697
   408    C    9  f(C2)  Ryd( 4f)     0.00007       2.55520
   409    C    9  f(S2)  Ryd( 5f)     0.00003       3.63728
   410    C    9  f(S2)  Ryd( 4f)     0.00001       2.83078
   411    C    9  f(C3)  Ryd( 4f)     0.00008       4.60496
   412    C    9  f(C3)  Ryd( 5f)     0.00002       7.77090
   413    C    9  f(S3)  Ryd( 5f)     0.00007       4.60815
   414    C    9  f(S3)  Ryd( 4f)     0.00004       4.51820
 
   415    O   10  S      Cor( 1S)     1.99979     -19.32876
   416    O   10  S      Val( 2S)     1.71076      -1.00068
   417    O   10  S      Ryd( 4S)     0.00092       2.59999
   418    O   10  S      Ryd( 3S)     0.00014       1.92148
   419    O   10  S      Ryd( 5S)     0.00002       8.79312
   420    O   10  px     Val( 2p)     1.80008      -0.33781
   421    O   10  px     Ryd( 4p)     0.00129       1.40074
   422    O   10  px     Ryd( 3p)     0.00010       0.89554
   423    O   10  px     Ryd( 5p)     0.00004       4.58855
   424    O   10  py     Val( 2p)     1.60535      -0.33190
   425    O   10  py     Ryd( 4p)     0.00116       1.58320
   426    O   10  py     Ryd( 3p)     0.00017       0.74502
   427    O   10  py     Ryd( 5p)     0.00006       5.23319
   428    O   10  pz     Val( 2p)     1.44018      -0.28543
   429    O   10  pz     Ryd( 4p)     0.00062       1.05860
   430    O   10  pz     Ryd( 3p)     0.00007       0.56738
   431    O   10  pz     Ryd( 5p)     0.00001       4.10815
   432    O   10  dxy    Ryd( 3d)     0.00719       2.01225
   433    O   10  dxy    Ryd( 4d)     0.00008       3.03262
   434    O   10  dxy    Ryd( 5d)     0.00003       6.48359
   435    O   10  dxz    Ryd( 3d)     0.00146       1.43759
   436    O   10  dxz    Ryd( 4d)     0.00001       1.78510
   437    O   10  dxz    Ryd( 5d)     0.00001       6.33854
   438    O   10  dyz    Ryd( 3d)     0.00524       1.54074
   439    O   10  dyz    Ryd( 4d)     0.00003       1.85082
   440    O   10  dyz    Ryd( 5d)     0.00003       6.27856
   441    O   10  dx2y2  Ryd( 3d)     0.00665       1.87678
   442    O   10  dx2y2  Ryd( 4d)     0.00012       2.55091
   443    O   10  dx2y2  Ryd( 5d)     0.00003       6.41676
   444    O   10  dz2    Ryd( 3d)     0.00282       1.64680
   445    O   10  dz2    Ryd( 4d)     0.00009       2.50140
   446    O   10  dz2    Ryd( 5d)     0.00001       6.41548
   447    O   10  f(0)   Ryd( 4f)     0.00013       3.10781
   448    O   10  f(0)   Ryd( 5f)     0.00001       5.53030
   449    O   10  f(C1)  Ryd( 4f)     0.00006       3.22983
   450    O   10  f(C1)  Ryd( 5f)     0.00001       5.63643
   451    O   10  f(S1)  Ryd( 4f)     0.00010       3.70736
   452    O   10  f(S1)  Ryd( 5f)     0.00001       5.84696
   453    O   10  f(C2)  Ryd( 4f)     0.00013       3.10296
   454    O   10  f(C2)  Ryd( 5f)     0.00002       5.70952
   455    O   10  f(S2)  Ryd( 4f)     0.00020       3.12637
   456    O   10  f(S2)  Ryd( 5f)     0.00000       5.66685
   457    O   10  f(C3)  Ryd( 4f)     0.00039       4.12252
   458    O   10  f(C3)  Ryd( 5f)     0.00001       6.11784
   459    O   10  f(S3)  Ryd( 4f)     0.00043       3.60020
   460    O   10  f(S3)  Ryd( 5f)     0.00003       6.00440
 
   461    O   11  S      Cor( 1S)     1.99977     -19.46060
   462    O   11  S      Val( 2S)     1.66417      -1.02201
   463    O   11  S      Ryd( 3S)     0.00032       1.28713
   464    O   11  S      Ryd( 4S)     0.00015       2.66995
   465    O   11  S      Ryd( 5S)     0.00001       9.62547
   466    O   11  px     Val( 2p)     1.45187      -0.35494
   467    O   11  px     Ryd( 4p)     0.00079       1.25940
   468    O   11  px     Ryd( 3p)     0.00011       1.06275
   469    O   11  px     Ryd( 5p)     0.00004       5.04598
   470    O   11  py     Val( 2p)     1.72174      -0.40042
   471    O   11  py     Ryd( 4p)     0.00104       1.09045
   472    O   11  py     Ryd( 3p)     0.00014       0.79883
   473    O   11  py     Ryd( 5p)     0.00006       4.70121
   474    O   11  pz     Val( 2p)     1.84505      -0.40937
   475    O   11  pz     Ryd( 4p)     0.00118       0.88654
   476    O   11  pz     Ryd( 3p)     0.00006       0.61416
   477    O   11  pz     Ryd( 5p)     0.00001       4.05052
   478    O   11  dxy    Ryd( 3d)     0.00581       1.98812
   479    O   11  dxy    Ryd( 4d)     0.00015       2.47675
   480    O   11  dxy    Ryd( 5d)     0.00004       6.84374
   481    O   11  dxz    Ryd( 3d)     0.00017       1.21609
   482    O   11  dxz    Ryd( 4d)     0.00008       1.86206
   483    O   11  dxz    Ryd( 5d)     0.00001       6.54023
   484    O   11  dyz    Ryd( 3d)     0.00408       1.30967
   485    O   11  dyz    Ryd( 4d)     0.00002       1.63609
   486    O   11  dyz    Ryd( 5d)     0.00003       6.52816
   487    O   11  dx2y2  Ryd( 3d)     0.00347       1.75558
   488    O   11  dx2y2  Ryd( 4d)     0.00009       2.12924
   489    O   11  dx2y2  Ryd( 5d)     0.00007       6.90307
   490    O   11  dz2    Ryd( 3d)     0.00282       1.51182
   491    O   11  dz2    Ryd( 4d)     0.00013       2.21483
   492    O   11  dz2    Ryd( 5d)     0.00001       6.75818
   493    O   11  f(0)   Ryd( 4f)     0.00051       2.79179
   494    O   11  f(0)   Ryd( 5f)     0.00001       5.89918
   495    O   11  f(C1)  Ryd( 4f)     0.00020       3.47321
   496    O   11  f(C1)  Ryd( 5f)     0.00002       6.23192
   497    O   11  f(S1)  Ryd( 4f)     0.00012       3.26674
   498    O   11  f(S1)  Ryd( 5f)     0.00001       6.09906
   499    O   11  f(C2)  Ryd( 4f)     0.00011       2.84555
   500    O   11  f(C2)  Ryd( 5f)     0.00001       6.08250
   501    O   11  f(S2)  Ryd( 4f)     0.00007       2.90446
   502    O   11  f(S2)  Ryd( 5f)     0.00001       5.94275
   503    O   11  f(C3)  Ryd( 4f)     0.00007       4.33506
   504    O   11  f(C3)  Ryd( 5f)     0.00005       6.52227
   505    O   11  f(S3)  Ryd( 4f)     0.00017       4.01625
   506    O   11  f(S3)  Ryd( 5f)     0.00003       6.49385
 
   507    H   12  S      Val( 1S)     0.76669       0.01801
   508    H   12  S      Ryd( 4S)     0.00040       1.97719
   509    H   12  S      Ryd( 2S)     0.00014       0.73456
   510    H   12  S      Ryd( 3S)     0.00003       1.32889
   511    H   12  px     Ryd( 2p)     0.00028       0.90418
   512    H   12  px     Ryd( 4p)     0.00008       4.18266
   513    H   12  px     Ryd( 3p)     0.00008       2.18973
   514    H   12  py     Ryd( 2p)     0.00100       0.95542
   515    H   12  py     Ryd( 4p)     0.00015       4.58533
   516    H   12  py     Ryd( 3p)     0.00004       3.61728
   517    H   12  pz     Ryd( 2p)     0.00038       0.64593
   518    H   12  pz     Ryd( 4p)     0.00004       3.80328
   519    H   12  pz     Ryd( 3p)     0.00005       1.58893
   520    H   12  dxy    Ryd( 3d)     0.00010       2.16594
   521    H   12  dxy    Ryd( 4d)     0.00003       4.43615
   522    H   12  dxz    Ryd( 3d)     0.00000       1.47230
   523    H   12  dxz    Ryd( 4d)     0.00001       3.59707
   524    H   12  dyz    Ryd( 3d)     0.00003       1.69064
   525    H   12  dyz    Ryd( 4d)     0.00001       3.94378
   526    H   12  dx2y2  Ryd( 3d)     0.00007       1.96925
   527    H   12  dx2y2  Ryd( 4d)     0.00002       4.46752
   528    H   12  dz2    Ryd( 3d)     0.00003       1.90093
   529    H   12  dz2    Ryd( 4d)     0.00003       3.87310
 
   530    H   13  S      Val( 1S)     0.77593       0.02020
   531    H   13  S      Ryd( 4S)     0.00029       2.00401
   532    H   13  S      Ryd( 2S)     0.00020       0.76561
   533    H   13  S      Ryd( 3S)     0.00001       1.17014
   534    H   13  px     Ryd( 2p)     0.00093       0.99966
   535    H   13  px     Ryd( 4p)     0.00005       5.15340
   536    H   13  px     Ryd( 3p)     0.00010       3.29291
   537    H   13  py     Ryd( 2p)     0.00036       0.93401
   538    H   13  py     Ryd( 3p)     0.00008       2.88587
   539    H   13  py     Ryd( 4p)     0.00005       3.29177
   540    H   13  pz     Ryd( 2p)     0.00012       0.76562
   541    H   13  pz     Ryd( 3p)     0.00011       2.31255
   542    H   13  pz     Ryd( 4p)     0.00002       3.09736
   543    H   13  dxy    Ryd( 3d)     0.00003       1.97910
   544    H   13  dxy    Ryd( 4d)     0.00002       4.38904
   545    H   13  dxz    Ryd( 3d)     0.00002       1.71724
   546    H   13  dxz    Ryd( 4d)     0.00001       3.94041
   547    H   13  dyz    Ryd( 3d)     0.00001       1.47467
   548    H   13  dyz    Ryd( 4d)     0.00000       3.43847
   549    H   13  dx2y2  Ryd( 3d)     0.00015       2.03416
   550    H   13  dx2y2  Ryd( 4d)     0.00001       4.27708
   551    H   13  dz2    Ryd( 3d)     0.00003       1.86232
   552    H   13  dz2    Ryd( 4d)     0.00003       3.77569
 
   553    H   14  S      Val( 1S)     0.76451       0.01934
   554    H   14  S      Ryd( 4S)     0.00037       1.98528
   555    H   14  S      Ryd( 2S)     0.00014       0.73403
   556    H   14  S      Ryd( 3S)     0.00003       1.32878
   557    H   14  px     Ryd( 2p)     0.00034       0.90518
   558    H   14  px     Ryd( 4p)     0.00011       4.30834
   559    H   14  px     Ryd( 3p)     0.00007       2.58115
   560    H   14  py     Ryd( 2p)     0.00091       0.94748
   561    H   14  py     Ryd( 4p)     0.00013       4.38762
   562    H   14  py     Ryd( 3p)     0.00005       3.28057
   563    H   14  pz     Ryd( 2p)     0.00038       0.64768
   564    H   14  pz     Ryd( 4p)     0.00004       3.83124
   565    H   14  pz     Ryd( 3p)     0.00005       1.55565
   566    H   14  dxy    Ryd( 3d)     0.00015       2.16760
   567    H   14  dxy    Ryd( 4d)     0.00003       4.40109
   568    H   14  dxz    Ryd( 3d)     0.00001       1.53131
   569    H   14  dxz    Ryd( 4d)     0.00001       3.71312
   570    H   14  dyz    Ryd( 3d)     0.00003       1.62519
   571    H   14  dyz    Ryd( 4d)     0.00001       3.84535
   572    H   14  dx2y2  Ryd( 3d)     0.00002       1.96128
   573    H   14  dx2y2  Ryd( 4d)     0.00002       4.52224
   574    H   14  dz2    Ryd( 3d)     0.00003       1.89904
   575    H   14  dz2    Ryd( 4d)     0.00003       3.87887
 
   576    H   15  S      Val( 1S)     0.48841       0.14653
   577    H   15  S      Ryd( 4S)     0.00090       1.85162
   578    H   15  S      Ryd( 3S)     0.00016       1.08118
   579    H   15  S      Ryd( 2S)     0.00013       1.04777
   580    H   15  px     Ryd( 3p)     0.00022       3.09435
   581    H   15  px     Ryd( 4p)     0.00039       3.42503
   582    H   15  px     Ryd( 2p)     0.00002       3.04308
   583    H   15  py     Ryd( 2p)     0.00025       2.13797
   584    H   15  py     Ryd( 4p)     0.00003       2.92608
   585    H   15  py     Ryd( 3p)     0.00003       2.86537
   586    H   15  pz     Ryd( 2p)     0.00058       1.77013
   587    H   15  pz     Ryd( 4p)     0.00003       2.67426
   588    H   15  pz     Ryd( 3p)     0.00001       2.64527
   589    H   15  dxy    Ryd( 3d)     0.00003       1.42952
   590    H   15  dxy    Ryd( 4d)     0.00001       4.44814
   591    H   15  dxz    Ryd( 3d)     0.00012       1.09776
   592    H   15  dxz    Ryd( 4d)     0.00000       4.27479
   593    H   15  dyz    Ryd( 3d)     0.00004       1.12305
   594    H   15  dyz    Ryd( 4d)     0.00000       3.83204
   595    H   15  dx2y2  Ryd( 3d)     0.00008       1.64420
   596    H   15  dx2y2  Ryd( 4d)     0.00001       4.65204
   597    H   15  dz2    Ryd( 3d)     0.00008       1.60002
   598    H   15  dz2    Ryd( 4d)     0.00000       4.08816

 WARNING:  1 low occupancy (<1.9990e) core orbital  found on  C    1
           1 low occupancy (<1.9990e) core orbital  found on  C    2
           1 low occupancy (<1.9990e) core orbital  found on  C    7

 WARNING:  Population inversion found on atom  C    1
           Population inversion found on atom  C    2
           Population inversion found on atom  F    3
           Population inversion found on atom  C    4
           Population inversion found on atom  C    5
           Population inversion found on atom  C    6
           Population inversion found on atom  C    7
           Population inversion found on atom  F    8
           Population inversion found on atom  C    9
           Population inversion found on atom  O   10
           Population inversion found on atom  O   11
           Population inversion found on atom  H   12
           Population inversion found on atom  H   13
           Population inversion found on atom  H   14
           Population inversion found on atom  H   15


 Summary of Natural Population Analysis:                  
                                                          
                                       Natural Population 
                Natural  -----------------------------------------------
    Atom  No    Charge         Core      Valence    Rydberg      Total
 -----------------------------------------------------------------------
      C    1   -0.33459      1.99864     4.31151    0.02444     6.33459
      C    2    0.47952      1.99838     3.49215    0.02995     5.52048
      F    3   -0.30713      1.99993     7.29837    0.00883     9.30713
      C    4   -0.28975      1.99903     4.27087    0.01985     6.28975
      C    5   -0.14196      1.99912     4.12370    0.01914     6.14196
      C    6   -0.28824      1.99903     4.26944    0.01978     6.28824
      C    7    0.49348      1.99836     3.47842    0.02974     5.50652
      F    8   -0.29996      1.99993     7.29124    0.00879     9.29996
      C    9    0.78684      1.99918     3.18093    0.03306     5.21316
      O   10   -0.58609      1.99979     6.55637    0.02993     8.58609
      O   11   -0.70490      1.99977     6.68284    0.02229     8.70490
      H   12    0.23032      0.00000     0.76669    0.00299     0.76968
      H   13    0.22145      0.00000     0.77593    0.00262     0.77855
      H   14    0.23256      0.00000     0.76451    0.00293     0.76744
      H   15    0.50846      0.00000     0.48841    0.00313     0.49154
 =======================================================================
   * Total *    0.00000     21.99115    57.75137    0.25748    80.00000

                                 Natural Population      
 --------------------------------------------------------
   Core                      21.99115 ( 99.9598% of  22)
   Valence                   57.75137 ( 99.5713% of  58)
   Natural Minimal Basis     79.74252 ( 99.6782% of  80)
   Natural Rydberg Basis      0.25748 (  0.3218% of  80)
 --------------------------------------------------------

    Atom  No          Natural Electron Configuration
 ----------------------------------------------------------------------------
      C    1      [core]2S( 0.91)2p( 3.40)4p( 0.01)4f( 0.01)
      C    2      [core]2S( 0.82)2p( 2.67)3d( 0.01)4p( 0.01)5p( 0.01)
      F    3      [core]2S( 1.82)2p( 5.48)
      C    4      [core]2S( 0.96)2p( 3.31)4p( 0.01)
      C    5      [core]2S( 0.95)2p( 3.17)4p( 0.01)
      C    6      [core]2S( 0.96)2p( 3.31)5p( 0.01)
      C    7      [core]2S( 0.83)2p( 2.65)3p( 0.01)3d( 0.01)
      F    8      [core]2S( 1.82)2p( 5.47)
      C    9      [core]2S( 0.78)2p( 2.40)4p( 0.01)5p( 0.01)
      O   10      [core]2S( 1.71)2p( 4.85)3d( 0.02)
      O   11      [core]2S( 1.66)2p( 5.02)3d( 0.02)
      H   12            1S( 0.77)
      H   13            1S( 0.78)
      H   14            1S( 0.76)
      H   15            1S( 0.49)


 NATURAL BOND ORBITAL ANALYSIS:

                       Occupancies       Lewis Structure    Low   High
           Occ.    -------------------  -----------------   occ   occ
  Cycle   Thresh.   Lewis   Non-Lewis     CR  BD  3C  LP    (L)   (NL)   Dev
 =============================================================================
   1(1)    1.90    76.02526   3.97474     11  17   0  12     8      6    0.43
   2(2)    1.90    76.02526   3.97474     11  17   0  12     8      6    0.43
   3(1)    1.80    76.37376   3.62624     11  16   0  13     3      4    0.43
   4(2)    1.80    76.37376   3.62624     11  16   0  13     3      4    0.43
   5(1)    1.70    76.37376   3.62624     11  16   0  13     3      4    0.43
   6(2)    1.70    76.37376   3.62624     11  16   0  13     3      4    0.43
   7(1)    1.60    78.08982   1.91018     11  19   0  10     0      4    0.43
   8(2)    1.60    77.48928   2.51072     11  18   0  11     1      4    0.43
   9(3)    1.60    78.08982   1.91018     11  19   0  10     0      4    0.43
  10(1)    1.50    77.60198   2.39802     11  18   0  11     0      5    0.72
  11(2)    1.50    77.60198   2.39802     11  18   0  11     0      5    0.72
  12(1)    1.60    78.08982   1.91018     11  19   0  10     0      4    0.43
 -----------------------------------------------------------------------------

 Structure accepted: RESONANCE keyword permits strongly delocalized structure

 WARNING:  1 low occupancy (<1.9990e) core orbital  found on  C    1
           1 low occupancy (<1.9990e) core orbital  found on  C    2
           1 low occupancy (<1.9990e) core orbital  found on  C    7

 --------------------------------------------------------
   Core                     21.99119 ( 99.960% of  22)
   Valence Lewis            56.09862 ( 96.722% of  58)
  ==================       ============================
   Total Lewis              78.08982 ( 97.612% of  80)
  -----------------------------------------------------
   Valence non-Lewis         1.75711 (  2.196% of  80)
   Rydberg non-Lewis         0.15308 (  0.191% of  80)
  ==================       ============================
   Total non-Lewis           1.91018 (  2.388% of  80)
 --------------------------------------------------------


       (Occupancy)   Bond orbital/ Coefficients/ Hybrids
 ---------------------------------------------------------------------------------
[...]
 ! D26   D(5,6,7,8)           -179.9881         -DE/DX =    0.0                 !
 ! D27   D(14,6,7,1)           179.9938         -DE/DX =    0.0                 !
 ! D28   D(14,6,7,8)             0.0091         -DE/DX =    0.0                 !
 ! D29   D(1,9,11,15)         -179.9961         -DE/DX =    0.0001              !
 ! D30   D(10,9,11,15)          -0.0035         -DE/DX =   -0.0001              !
 --------------------------------------------------------------------------------
 GradGradGradGradGradGradGradGradGradGradGradGradGradGradGradGradGradGrad


 ----------------------------------------------------------------------

 Electric dipole moment (input orientation):
 (Debye = 10**-18 statcoulomb cm , SI units = C m)
                  (au)            (Debye)         (10**-30 SI)
   Tot        0.117696D+01      0.299154D+01      0.997870D+01
   x         -0.126041D+00     -0.320363D+00     -0.106862D+01
   y          0.689298D-01      0.175202D+00      0.584412D+00
   z          0.116816D+01      0.296917D+01      0.990408D+01

 Dipole polarizability, Alpha (input orientation).
 (esu units = cm**3 , SI units = C**2 m**2 J**-1)
 Alpha(0;0):
               (au)            (10**-24 esu)      (10**-40 SI)
   iso        0.885346D+02      0.131195D+02      0.145974D+02
   aniso      0.578899D+02      0.857839D+01      0.954475D+01
   xx         0.918106D+02      0.136049D+02      0.151375D+02
   yx        -0.206713D+02     -0.306318D+01     -0.340824D+01
   yy         0.620182D+02      0.919014D+01      0.102254D+02
   zx        -0.697966D+01     -0.103428D+01     -0.115079D+01
   zy         0.375153D+01      0.555920D+00      0.618544D+00
   zz         0.111775D+03      0.165633D+02      0.184292D+02

 ----------------------------------------------------------------------

 Dipole orientation:
     6          2.11707763          2.89068790          2.10921282
     6          3.35347455          2.25575210          4.35851933
     9          5.59075245          1.11092210          4.29850792
     6          2.36113381          2.76086068          6.71782795
     6          0.03788766          3.94919008          6.89069462
     6         -1.27199936          4.62156719          4.72931825
     6         -0.22484447          4.08831563          2.40048285
     9         -1.54287270          4.76492471          0.37834244
     6          3.12624243          2.37723189         -0.47110326
     8          2.06535333          2.91689903         -2.39845014
     8          5.38589959          1.22376169         -0.45643569
     1          3.43064337          2.21187743          8.36617108
     1         -0.75872681          4.35474555          8.72701774
     1         -3.08721653          5.55014927          4.79688139
     1          5.84506894          0.98910493         -2.20940650

 Electric dipole moment (dipole orientation):
 (Debye = 10**-18 statcoulomb cm , SI units = C m)
                  (au)            (Debye)         (10**-30 SI)
   Tot        0.117696D+01      0.299154D+01      0.997870D+01
   x          0.000000D+00      0.000000D+00      0.000000D+00
   y          0.000000D+00      0.000000D+00      0.000000D+00
   z          0.117696D+01      0.299154D+01      0.997870D+01

 Dipole polarizability, Alpha (dipole orientation).
 (esu units = cm**3 , SI units = C**2 m**2 J**-1)
 Alpha(0;0):
               (au)            (10**-24 esu)      (10**-40 SI)
   iso        0.885346D+02      0.131195D+02      0.145974D+02
   aniso      0.578899D+02      0.857839D+01      0.954475D+01
   xx         0.904261D+02      0.133998D+02      0.149092D+02
   yx        -0.199316D+02     -0.295356D+01     -0.328627D+01
   yy         0.616231D+02      0.913160D+01      0.101603D+02
   zx        -0.585251D+01     -0.867252D+00     -0.964948D+00
   zy         0.294239D+01      0.436017D+00      0.485134D+00
   zz         0.113555D+03      0.168270D+02      0.187226D+02

 ----------------------------------------------------------------------
 Unable to Open any file for archive entry.
 1\1\GINC-AE33\Freq\RM062X\Aug-CC-pVTZ\C7H4F2O2\DHUANG\04-Mar-2025\0\\#
 N Geom=AllCheck Guess=TCheck SCRF=Check GenChk RM062X/Aug-CC-pVTZ Freq
 \\17\\0,1\C,0.9991480371,1.5959475071,1.1381881302\C,1.5211306483,1.33
 23017325,2.4093138583\F,2.6997268362,0.7293933809,2.5400603698\C,0.866
 1694427,1.6705997524,3.5765814987\C,-0.3639803388,2.2998417606,3.49888
 89769\C,-0.9295489972,2.5858692145,2.2686209448\C,-0.2475221231,2.2337
 399239,1.121336956\F,-0.8252575118,2.5263045915,-0.0363940101\C,1.6754
 713859,1.2464184326,-0.14394505\O,1.2274249789,1.4700074216,-1.2330724
 882\O,2.8615955937,0.6412974615,0.0275603917\H,1.3345468384,1.43345691
 83,4.5199476763\H,-0.8864922841,2.5696670072,4.4056509376\H,-1.8868739
 053,3.0754781387,2.172460631\H,3.2021281692,0.4637733968,-0.859842523\
 \Version=ES64L-G16RevC.01\State=1-A\HF=-619.3078752\RMSD=1.483e-09\RMS
 F=4.847e-05\ZeroPoint=0.1001761\Thermal=0.1080165\ETot=-619.1998587\HT
 ot=-619.1989145\GTot=-619.2407394\Dipole=-0.1260406,0.0689298,1.168161
 3\DipoleDeriv=-0.3673613,0.1634519,0.1910968,0.1633986,-0.1327502,-0.0
 993395,0.1805697,-0.0941622,-0.654304,1.0671015,-0.4780441,0.2024881,-
 0.4793297,0.3769822,-0.1020978,-0.1589172,0.0824561,0.566857,-0.960544
 8,0.4337849,-0.1474611,0.434017,-0.3341112,0.0750979,-0.0928044,0.0471
 339,-0.2452829,-0.371115,0.1082112,0.0348009,0.1089125,-0.2156258,-0.0
 177359,0.2924877,-0.1495868,-0.1185915,0.2272449,-0.1641316,0.086096,-
 0.1641293,-0.0101252,-0.0432253,0.0945601,-0.0475801,0.2049465,-0.0553
 363,-0.0520277,0.1326294,-0.0527624,-0.1309139,-0.0687702,-0.1384899,0
 .069959,-0.4944816,0.5664623,-0.2215593,0.0800422,-0.2204797,0.2459733
 ,-0.0384297,0.437841,-0.2214494,1.1324852,-0.4097144,0.1522783,-0.3619
 078,0.1521893,-0.1876553,0.1832301,-0.4088125,0.2072257,-0.8858801,1.5
 711369,-0.6172564,-0.23901,-0.6174396,0.6778997,0.1280723,-0.2063987,0
 .1114688,1.9690222,-0.6197462,0.1300541,-0.0271659,0.1295194,-0.430551
 6,0.0096543,-0.0939587,0.0441878,-1.3615095,-1.2007119,0.4300308,0.111
 5719,0.4307319,-0.5782686,-0.0572787,0.1338519,-0.0686984,-0.4456477,0
 .0717439,0.0451949,-0.0252011,0.0452394,0.13707,0.0125192,-0.0263782,0
 .0131321,0.0255295,0.065257,0.032714,0.0447974,0.0327007,0.1121469,-0.
 0232605,0.0452074,-0.0234737,0.0035774,0.0417878,0.0606253,-0.0096423,
 0.0606227,0.1293011,0.004674,-0.0100113,0.0048681,0.0677651,0.3737957,
 -0.0233264,-0.0731345,-0.0231907,0.3406285,0.03689,-0.0487467,0.024519
 1,0.2355145\Polar=91.8105904,-20.6713435,62.0181668,-6.9796646,3.75153
 2,111.774975\Quadrupole=1.3249616,-1.048412,-0.2765496,-1.6778929,-6.4
 027461,3.2712889\PG=C01 [X(C7H4F2O2)]\NImag=1\\0.56738043,-0.22180348,
 0.24718276,0.01400011,-0.00563715,0.67346919,-0.13422118,0.03527284,-0
 .07589539,0.59049802,0.03544173,-0.08286868,0.03826933,-0.21773946,0.2
 7651476,-0.01859742,0.00894217,-0.28410612,-0.00595326,0.00445995,0.69
 409384,-0.02278470,0.01509981,-0.01449377,-0.29102683,0.12521047,-0.02
 165212,0.36101131,0.01502517,-0.00088127,0.00739600,0.12520893,-0.1103
 3860,0.01100315,-0.17279268,0.11170117,-0.04043478,0.02068022,0.002353
 38,-0.02289525,0.01162747,-0.07879541,0.02100389,-0.01058288,0.0895374
 9,0.05033388,-0.02094775,0.02869492,-0.14228891,0.03656790,0.03540645,
 -0.04546302,0.02913870,0.03929771,0.60519149,-0.02109121,0.01996378,-0
 .01484435,0.03678992,-0.08987515,-0.01872596,0.02904450,-0.00365970,-0
 .02011443,-0.24625441,0.24973905,-0.01838143,0.00924709,-0.04912843,0.
 11428893,-0.05908424,-0.29559046,0.00478470,-0.00245599,0.00951905,0.0
 3735269,-0.01744707,0.74223568,-0.04012884,0.02058735,-0.02834520,-0.0
 3329455,0.01732200,0.08185854,0.00679819,0.00016256,-0.00267191,-0.294
 26985,0.11990708,-0.04645834,0.59128403,0.02059708,-0.01022994,0.01444
 077,0.01714621,-0.00876791,-0.04173805,0.00019308,0.00704292,0.0013256
 7,0.12008530,-0.12108291,0.02357181,-0.22962940,0.26019920,-0.02756543
 ,0.01403712,-0.02276462,0.01805330,-0.00908646,0.05565239,0.00710357,-
 0.00367780,-0.00820619,0.02234685,-0.01163386,-0.13498599,-0.02842790,
 0.01616964,0.73849514,-0.01794969,0.01403703,0.01663766,0.00005871,-0.
 00058513,0.00859014,-0.00322154,0.00109218,-0.00112391,-0.01311564,0.0
 0996446,-0.03121802,-0.15644248,0.04925861,-0.11544647,0.63785350,0.01
 415220,0.00212984,-0.00843062,-0.00057554,-0.00084768,-0.00463506,0.00
 108208,-0.00163339,0.00059258,0.00983464,0.00153134,0.01605366,0.04944
 541,-0.08469916,0.05839022,-0.26320396,0.25802281,0.06312075,-0.032211
 85,0.03904972,0.01121106,-0.00597779,-0.08923729,-0.00467884,0.0024153
 3,0.00534430,-0.07780844,0.03989036,0.03641030,-0.04684043,0.02328284,
 -0.30939559,0.02098392,-0.00915728,0.70249993,-0.25258041,0.09512762,0
 .04061524,-0.01184593,0.00406071,-0.09690635,0.00026314,0.00328743,0.0
 0653987,-0.05232279,0.02630573,0.03500656,0.06437049,-0.03278497,0.032
 15303,-0.18291094,0.05741472,0.05605287,0.58464323,0.09497796,-0.11552
 039,-0.02097306,0.00422539,-0.00542457,0.04973512,0.00327215,0.0049630
 1,-0.00338841,0.02631730,-0.01460340,-0.01797039,-0.03295371,0.0169481
 9,-0.01663485,0.05761922,-0.10058406,-0.02916157,-0.21378138,0.2762384
 1,-0.01695694,0.00848854,-0.13355335,-0.03528439,0.01821383,0.05244652
 ,0.00148099,-0.00080313,-0.00944587,0.03782686,-0.01941286,-0.02276133
 ,-0.03089139,0.01562297,-0.06773871,0.13353196,-0.06880906,-0.24654003
 ,-0.00126960,0.00211683,0.71368717,-0.01976511,0.01376306,-0.04158929,
 -0.00233107,0.00449773,0.00767559,-0.00154538,0.00080638,-0.00270917,0
 .00057661,-0.00081693,-0.00298361,-0.00137654,0.00433596,0.00196728,0.
 01593526,-0.00233121,0.00843039,-0.12363120,0.03890932,-0.10737862,0.1
 3753388,0.01383284,0.00033267,0.02125475,0.00448332,0.00411388,-0.0039
 6002,0.00080915,-0.00036575,0.00138656,-0.00082715,-0.00057775,0.00153
 018,0.00436131,0.00485211,-0.00101965,-0.00242195,0.01255986,-0.004523
 69,0.03890550,-0.06678909,0.05427512,-0.05790730,0.05313868,-0.0174536
 1,0.00890393,-0.00209571,0.00270261,-0.00142316,-0.00655245,-0.0015818
 0,0.00081085,0.00033552,-0.00708481,0.00362848,0.00022398,0.01151762,-
 0.00590490,0.00276280,-0.02503705,0.01260325,-0.06726291,-0.10829412,0
 .05474946,-0.29752730,0.13509373,-0.06816811,0.37927387,-0.12155910,0.
 02167874,0.04462773,0.03294220,-0.01649046,-0.00308264,-0.01464030,0.0
 0519677,0.00264459,0.00110653,0.00281200,-0.00551803,-0.00129709,-0.00
 004932,-0.00238736,-0.00358542,0.00494258,-0.00231910,-0.01515112,0.00
 917206,0.02970449,0.00234969,-0.00340115,-0.00080908,0.57911889,0.0216
 7099,-0.09056983,-0.02302013,-0.01649204,0.00914709,0.00147167,0.00520
 068,-0.00716354,-0.00132716,0.00281401,0.00520024,0.00281178,-0.000042
 48,-0.00135537,0.00122513,0.00493361,0.00356382,0.00117778,0.00918988,
 -0.00211561,-0.01510441,-0.00341660,-0.00253830,0.00034679,-0.18485105
 ,0.30982708,0.03318197,-0.01714151,-0.15539687,-0.00033464,0.00006473,
 -0.03356290,0.00830233,-0.00422206,0.00384444,-0.00497551,0.00252598,-
 0.00000962,-0.00143268,0.00073969,0.00074924,-0.00347902,0.00176650,0.
 00379032,0.02785092,-0.01417085,0.02819437,-0.00661111,0.00333863,-0.0
 2081418,0.13124640,-0.06376918,0.94812222,0.02165498,-0.00038453,0.004
 09506,-0.00595104,0.00442996,0.00304052,0.00361494,-0.00163459,-0.0012
 5993,0.00102523,-0.00135076,0.00051419,-0.00032589,0.00034061,0.000024
 17,0.00058856,-0.00072561,0.00080082,-0.00415366,0.00136088,-0.0086246
 9,-0.00762181,0.00510150,0.01209457,-0.19062508,0.05499284,-0.21085540
 ,0.22231341,-0.00044757,0.02110331,-0.00242440,0.00446367,0.00039924,-
 0.00154964,-0.00163221,0.00126450,0.00063716,-0.00135324,-0.00092547,-
 0.00027466,0.00033691,0.00016681,-0.00001421,-0.00072521,-0.00046868,-
 0.00041000,0.00133165,-0.00211837,0.00438117,0.00509453,-0.00036974,-0
 .00616794,0.05500110,-0.10853869,0.10492704,-0.09559416,0.08074716,-0.
 00771253,0.00357423,-0.06567532,0.01137723,-0.00581910,0.00434754,-0.0
 0234515,0.00119315,-0.00097233,0.00080938,-0.00041216,-0.00344377,-0.0
 0091720,0.00046431,-0.00106880,0.00040237,-0.00019918,-0.00006371,-0.0
 1223652,0.00623935,-0.00989583,0.00839555,-0.00429171,0.00738720,-0.21
 056578,0.10480842,-0.65893089,0.27497553,-0.13710456,0.74486104,-0.026
 21612,0.01906795,0.01026123,-0.01009205,0.00491334,-0.00375764,0.00766
 257,-0.00305223,0.00275399,0.00033048,-0.00038302,0.00061816,-0.000735
 32,0.00044538,-0.00013229,-0.00102961,0.00017058,0.00147422,0.00395258
 ,-0.00123872,0.00203950,-0.00102228,0.00049542,0.00115077,-0.24330536,
 0.09022535,-0.02233933,-0.04632282,0.03963416,-0.05957974,0.40513251,0
 .01914082,0.00124290,-0.00526706,0.00492594,-0.00297439,0.00192761,-0.
 00304812,0.00325198,-0.00144739,-0.00038667,-0.00022795,-0.00031555,0.
 00044591,-0.00009150,0.00006826,0.00017236,-0.00079598,-0.00074948,-0.
 00124930,0.00216089,-0.00108220,0.00049068,-0.00031764,-0.00057293,0.0
 9036693,-0.11253274,0.01118554,0.03958646,0.01175628,0.03021933,-0.187
 77142,0.13414538,0.03420265,-0.01749887,0.00291127,-0.00114377,0.00059
 124,0.00152243,0.00269873,-0.00141611,-0.01543980,0.00041135,-0.000208
 88,0.00003538,0.00017784,-0.00009111,0.00004547,0.00198842,-0.00101468
 ,0.00055137,-0.00232077,0.00115554,-0.01044251,0.00041245,-0.00019886,
 0.00364609,0.00898416,-0.00482529,-0.12452130,-0.06979636,0.03545107,-
 0.00967607,-0.09369322,0.05008573,0.59068672,-0.00038614,0.00247626,0.
 00250493,0.00963550,-0.00209698,0.01405505,0.00017971,-0.00256947,-0.0
 0081545,-0.10573134,0.03629190,-0.11017299,-0.00620258,0.00425333,-0.0
 2484034,-0.00275654,0.00477602,0.00072763,-0.00136795,0.00042802,0.000
 85774,0.00014554,-0.00031913,-0.00013530,0.00086101,-0.00007907,0.0001
 9915,-0.00016998,-0.00005442,0.00050571,-0.00014472,0.00004152,0.00002
 684,0.10598220,0.00247968,0.00317006,-0.00130186,-0.00217445,0.0065571
 4,-0.00725736,-0.00256866,-0.00352154,0.00043722,0.03630013,-0.0526630
 5,0.05570449,0.00432043,0.00006249,0.01271647,0.00477446,0.00412873,-0
 .00038265,0.00043024,-0.00075703,-0.00043997,-0.00031878,-0.00031407,0
 .00007246,-0.00008271,0.00074957,-0.00010294,-0.00005651,-0.00025367,-
 0.00025969,0.00004233,-0.00008596,-0.00001358,-0.04130818,0.04562065,0
 .00323513,-0.00167355,-0.00286705,-0.01439140,0.00729672,-0.01969965,-
 0.00057099,0.00031217,0.00253271,-0.10807329,0.05463179,-0.28381727,0.
 00118722,-0.00060094,0.00473161,0.00051788,-0.00027742,0.00196258,0.00
 118410,-0.00060454,-0.00010409,-0.00000280,0.00000354,0.00030299,-0.00
 139318,0.00071193,0.00018895,0.00026441,-0.00013801,-0.00077798,0.0003
 4224,-0.00017510,-0.00000628,0.11790352,-0.05960203,0.29689574,-0.0008
 3915,-0.00013685,-0.00080541,-0.00189524,0.00478880,-0.00123432,-0.001
 55614,0.00052381,0.00122800,-0.00787711,0.00683964,0.02431616,-0.12316
 188,0.04197907,0.11651244,0.01079228,-0.00277850,-0.01172905,0.0013132
 5,0.00312175,-0.00272869,0.00012830,-0.00035143,-0.00099783,-0.0002373
 2,-0.00023135,-0.00002277,0.00007047,0.00003472,0.00009396,0.00007664,
 -0.00000035,0.00002238,0.00010058,-0.00214194,-0.00036970,0.12344626,-
 0.00013524,-0.00103141,0.00041605,0.00478785,0.00502098,0.00061675,0.0
 0051973,-0.00080673,-0.00062662,0.00676882,0.00186345,-0.01244060,0.04
 197930,-0.06338322,-0.06021573,-0.00270565,0.00682570,0.00593661,0.003
 12019,0.00583653,0.00137001,-0.00034771,-0.00037403,0.00050612,-0.0002
 3098,-0.00057028,0.00001383,0.00003404,0.00011940,-0.00004883,-0.00000
 048,0.00007593,-0.00001189,-0.00214025,-0.00298766,0.00020156,-0.04977
 584,0.05247544,-0.00081063,0.00041775,0.00001468,-0.00109686,0.0005455
 3,0.00174670,-0.00017521,0.00009160,0.00017027,-0.00235376,0.00120567,
 0.00582466,0.11654856,-0.06023466,-0.26194753,0.01490115,-0.00768763,-
 0.01765387,-0.00288026,0.00144721,-0.00241515,0.00042051,-0.00021881,-
 0.00189906,-0.00002469,0.00001436,-0.00006649,0.00006083,-0.00003149,0
 .00002002,0.00008642,-0.00004445,-0.00002895,0.00033326,-0.00015806,0.
 00049291,-0.12487094,0.06456830,0.27463917,0.00072800,0.00195214,0.002
 61393,0.00031413,-0.00037710,0.00039553,0.00006838,-0.00030626,0.00001
 507,0.00238350,0.00212747,-0.00203997,-0.00525584,0.00383350,0.0007466
 9,-0.28377198,0.12774640,-0.01906140,-0.01051066,0.00819125,-0.0043080
 5,0.00038368,-0.00267223,-0.00068598,-0.00012051,0.00035542,-0.0009102
 9,0.00010808,-0.00008759,0.00027152,-0.00020344,0.00003661,0.00030280,
 -0.00017203,0.00030239,0.00017498,-0.00038229,-0.00188409,-0.00013325,
 0.29648493,0.00194997,0.00352830,-0.00136076,-0.00037829,-0.00023233,-
 0.00020660,-0.00030651,-0.00037330,-0.00000530,0.00212889,0.00546539,0
 .00101273,0.00376126,0.00030603,-0.00037901,0.12774032,-0.09936239,0.0
 0968454,0.00826942,0.00129437,0.00220599,-0.00267309,-0.00346628,0.000
 36972,0.00036109,0.00039664,0.00046737,-0.00008923,-0.00002035,-0.0001
 3961,0.00003669,-0.00015297,-0.00015633,0.00029872,0.00026496,-0.00009
 019,-0.00188190,-0.00310038,0.00008213,-0.13921894,0.09550466,0.001832
 20,-0.00096096,-0.00416818,0.00002110,-0.00001570,-0.00218866,-0.00009
 550,0.00005140,0.00036855,-0.00185327,0.00091788,-0.00452382,-0.025226
 43,0.01291211,0.00369346,-0.02122196,0.01078881,-0.05967039,0.02429197
 ,-0.01242911,0.00606370,-0.00103739,0.00054980,0.00220610,0.00087958,-
 0.00044776,0.00113011,-0.00014133,0.00007137,-0.00025965,0.00037097,-0
 .00019112,-0.00053661,-0.00113632,0.00058071,0.00014917,0.00058226,-0.
 00028370,0.00109785,0.02263451,-0.01149313,0.05662016,-0.00366686,0.00
 420981,-0.00292176,-0.00050177,0.00005648,0.00016193,0.00063966,-0.000
 08668,-0.00157271,0.00012094,-0.00018636,-0.00010897,0.00003815,-0.000
 00444,-0.00010756,-0.00044447,0.00005020,-0.00036437,-0.00006804,0.000
 37851,0.00200082,0.00024043,-0.00008871,-0.00047973,-0.02585701,0.0157
 2982,0.05017998,0.00579461,-0.00600236,-0.00347432,-0.08808308,0.03724
 864,0.11772651,0.00002672,0.00000159,-0.00000812,0.00002136,0.00001031
 ,-0.00000512,-0.00005394,0.00000161,0.00009964,0.11179329,0.00420907,0
 .00244791,0.00148251,0.00005572,-0.00042379,-0.00008374,-0.00008345,0.
 00052025,0.00080532,-0.00018647,-0.00014785,0.00005679,-0.00000394,0.0
 0003224,0.00005474,0.00004964,-0.00037075,0.00018685,0.00037256,0.0004
 7111,-0.00102284,-0.00008605,0.00011547,0.00024598,0.01557439,-0.00350
 007,-0.02562279,-0.00601092,-0.00286173,0.00177605,0.03741468,-0.03545
 423,-0.06184797,0.00000175,0.00002938,0.00000406,0.00001038,0.00003627
 ,0.00000255,0.00000104,-0.00005234,-0.00005059,-0.05131841,0.03915814,
 -0.00166002,0.00083283,0.00195740,-0.00065929,0.00033766,-0.00007650,0
 .00021919,-0.00011567,-0.00114611,0.00000287,-0.00000059,0.00001161,-0
 .00007829,0.00003986,-0.00002269,-0.00002709,0.00001591,0.00021526,0.0
 0021307,-0.00011073,0.00003240,-0.00008349,0.00004228,0.00001305,0.008
 01291,-0.00407392,0.00728259,-0.00519240,0.00264711,-0.00585146,0.1604
 0473,-0.08364119,-0.43874721,-0.00001340,0.00000680,0.00001566,0.00000
 352,-0.00000187,0.00000477,-0.00001608,0.00000843,0.00001821,-0.161126
 21,0.08401310,0.43629301\\-0.00006559,-0.00003752,0.00005582,-0.000027
 08,0.00001596,0.00000348,0.00000562,-0.00000920,0.00002343,0.00001719,
 -0.00000392,-0.00003189,-0.00001996,0.00000948,-0.00003207,0.00001700,
 -0.00000357,0.00003867,0.00004458,-0.00003158,-0.00001555,-0.00002872,
 0.00000918,0.00001690,0.00005624,0.00022516,-0.00005849,0.00004148,-0.
 00011330,0.00006137,-0.00005143,-0.00005629,-0.00006700,-0.00000394,0.
 00000288,-0.00000081,0.00000634,-0.00000419,-0.00000509,0.00000151,-0.
 00000016,0.00000106,0.00000677,-0.00000293,0.00001016\\\@
 The archive entry for this job was punched.


 ALTHOUGH J.J. COULD DIAGNOSE THE FAULTS OF AN
 APPARATUS WITH UNCANNY ACCURACY, IT WAS JUST AS
 WELL NOT TO LET HIM HANDLE IT.
   -- GEORGE THOMPSON, ABOUT HIS FATHER
 Job cpu time:       0 days  9 hours 57 minutes 15.2 seconds.
 Elapsed time:       0 days  0 hours 29 minutes 52.3 seconds.
 File lengths (MBytes):  RWF=    411 Int=      0 D2E=      0 Chk=     33 Scr=      1
 Normal termination of Gaussian 16 at Tue Mar  4 19:11:21 2025.
