 Entering Gaussian System, Link 0=g16
 Initial command:
 /usr/local/gaussian16c01/g16/l1.exe "/scr/dhuang/Gau-77075.inp" -scrdir="/scr/dhuang/"
 Entering Link 1 = /usr/local/gaussian16c01/g16/l1.exe PID=     77076.
  
 Copyright (c) 1988-2019, Gaussian, Inc.  All Rights Reserved.
  
 This is part of the Gaussian(R) 16 program.  It is based on
 the Gaussian(R) 09 system (copyright 2009, Gaussian, Inc.),
 the Gaussian(R) 03 system (copyright 2003, Gaussian, Inc.),
 the Gaussian(R) 98 system (copyright 1998, Gaussian, Inc.),
 the Gaussian(R) 94 system (copyright 1995, Gaussian, Inc.),
 the Gaussian 92(TM) system (copyright 1992, Gaussian, Inc.),
 the Gaussian 90(TM) system (copyright 1990, Gaussian, Inc.),
 the Gaussian 88(TM) system (copyright 1988, Gaussian, Inc.),
 the Gaussian 86(TM) system (copyright 1986, Carnegie Mellon
 University), and the Gaussian 82(TM) system (copyright 1983,
 Carnegie Mellon University). Gaussian is a federally registered
 trademark of Gaussian, Inc.
  
 This software contains proprietary and confidential information,
 including trade secrets, belonging to Gaussian, Inc.
  
 This software is provided under written license and may be
 used, copied, transmitted, or stored only in accord with that
 written license.
  
 The following legend is applicable only to US Government
 contracts under FAR:
  
                    RESTRICTED RIGHTS LEGEND
  
 Use, reproduction and disclosure by the US Government is
 subject to restrictions as set forth in subparagraphs (a)
 and (c) of the Commercial Computer Software - Restricted
 Rights clause in FAR 52.227-19.
  
 Gaussian, Inc.
 340 Quinnipiac St., Bldg. 40, Wallingford CT 06492
  
  
 ---------------------------------------------------------------
 Warning -- This program may not be used in any manner that
 competes with the business of Gaussian, Inc. or will provide
 assistance to any competitor of Gaussian, Inc.  The licensee
 of this program is prohibited from giving any competitor of
 Gaussian, Inc. access to this program.  By using this program,
 the user acknowledges that Gaussian, Inc. is engaged in the
 business of creating and licensing software in the field of
 computational chemistry and represents and warrants to the
 licensee that it is not a competitor of Gaussian, Inc. and that
 it will not use this program in any manner prohibited above.
 ---------------------------------------------------------------
  

 Cite this work as:
 Gaussian 16, Revision C.01,
 M. J. Frisch, G. W. Trucks, H. B. Schlegel, G. E. Scuseria, 
 M. A. Robb, J. R. Cheeseman, G. Scalmani, V. Barone, 
 G. A. Petersson, H. Nakatsuji, X. Li, M. Caricato, A. V. Marenich, 
 J. Bloino, B. G. Janesko, R. Gomperts, B. Mennucci, H. P. Hratchian, 
 J. V. Ortiz, A. F. Izmaylov, J. L. Sonnenberg, D. Williams-Young, 
 F. Ding, F. Lipparini, F. Egidi, J. Goings, B. Peng, A. Petrone, 
 T. Henderson, D. Ranasinghe, V. G. Zakrzewski, J. Gao, N. Rega, 
 G. Zheng, W. Liang, M. Hada, M. Ehara, K. Toyota, R. Fukuda, 
 J. Hasegawa, M. Ishida, T. Nakajima, Y. Honda, O. Kitao, H. Nakai, 
 T. Vreven, K. Throssell, J. A. Montgomery, Jr., J. E. Peralta, 
 F. Ogliaro, M. J. Bearpark, J. J. Heyd, E. N. Brothers, K. N. Kudin, 
 V. N. Staroverov, T. A. Keith, R. Kobayashi, J. Normand, 
 K. Raghavachari, A. P. Rendell, J. C. Burant, S. S. Iyengar, 
 J. Tomasi, M. Cossi, J. M. Millam, M. Klene, C. Adamo, R. Cammi, 
 J. W. Ochterski, R. L. Martin, K. Morokuma, O. Farkas, 
 J. B. Foresman, and D. J. Fox, Gaussian, Inc., Wallingford CT, 2019.
 
 ******************************************
 Gaussian 16:  ES64L-G16RevC.01  3-Jul-2019
                 4-Mar-2025 
 ******************************************
 %nprocshared=20
 Will use up to   20 processors via shared memory.
 %mem=10000MW
 %chk=18.chk
 ------------------------------------
 # opt freq m062x/aug-cc-pvtz pop=nbo
 ------------------------------------
 1/18=20,19=15,26=3,38=1/1,3;
 2/9=110,12=2,17=6,18=5,40=1/2;
 3/5=16,6=1,7=10,11=2,25=1,30=1,71=1,74=-55/1,2,3;
 4//1;
 5/5=2,38=5/2;
 6/7=2,8=2,9=2,10=2,28=1,40=1/1,7;
 7//1,2,3,16;
 1/18=20,19=15,26=3/3(2);
 2/9=110/2;
 99//99;
 2/9=110/2;
 3/5=16,6=1,7=10,11=2,25=1,30=1,71=1,74=-55/1,2,3;
 4/5=5,16=3,69=1/1;
 5/5=2,38=5/2;
 7//1,2,3,16;
 1/18=20,19=15,26=3/3(-5);
 2/9=110/2;
 6/7=2,8=2,9=2,10=2,19=2,28=1,40=1/1,7;
 99/9=1/99;
 --
 18
 --
 Symbolic Z-matrix:
 Charge =  0 Multiplicity = 1
 C                     1.06465   1.68919   0.92658 
 C                     1.61825   1.66371   2.17009 
 Cl                    3.05769   0.81269   2.64265 
 C                     1.04461   2.27822   3.22096 
 C                    -0.10081   2.95156   3.08451 
 C                    -0.67091   2.98973   1.87704 
 C                    -0.10985   2.37411   0.81929 
 Cl                   -1.05949   2.61925  -0.62142 
 C                     1.6636    1.0693   -0.1502 
 O                     1.13208   0.98781  -1.24211 
 O                     2.8796    0.4615   -0.0948 
 H                     1.48956   2.24256   4.23121 
 H                    -0.56792   3.45475   3.94751 
 H                    -1.61796   3.55141   1.78915 
 H                     3.13066   0.08535  -0.9468 
 

 GradGradGradGradGradGradGradGradGradGradGradGradGradGradGradGradGradGrad
 Berny optimization.
 Initialization pass.
                           ----------------------------
                           !    Initial Parameters    !
                           ! (Angstroms and Degrees)  !
 --------------------------                            --------------------------
 ! Name  Definition              Value          Derivative Info.                !
 --------------------------------------------------------------------------------
 ! R1    R(1,2)                  1.3614         estimate D2E/DX2                !
 ! R2    R(1,7)                  1.3639         estimate D2E/DX2                !
 ! R3    R(1,9)                  1.3793         estimate D2E/DX2                !
 ! R4    R(2,3)                  1.7377         estimate D2E/DX2                !
 ! R5    R(2,4)                  1.3457         estimate D2E/DX2                !
 ! R6    R(4,5)                  1.3357         estimate D2E/DX2                !
 ! R7    R(4,12)                 1.1045         estimate D2E/DX2                !
 ! R8    R(5,6)                  1.3358         estimate D2E/DX2                !
 ! R9    R(5,13)                 1.1028         estimate D2E/DX2                !
 ! R10   R(6,7)                  1.3463         estimate D2E/DX2                !
 ! R11   R(6,14)                 1.1046         estimate D2E/DX2                !
 ! R12   R(7,8)                  1.7429         estimate D2E/DX2                !
 ! R13   R(9,10)                 1.2171         estimate D2E/DX2                !
 ! R14   R(9,11)                 1.3606         estimate D2E/DX2                !
 ! R15   R(11,15)                0.9646         estimate D2E/DX2                !
 ! A1    A(2,1,7)              115.5587         estimate D2E/DX2                !
 ! A2    A(2,1,9)              121.8757         estimate D2E/DX2                !
 ! A3    A(7,1,9)              122.5639         estimate D2E/DX2                !
 ! A4    A(1,2,3)              126.4707         estimate D2E/DX2                !
 ! A5    A(1,2,4)              122.0989         estimate D2E/DX2                !
 ! A6    A(3,2,4)              111.3689         estimate D2E/DX2                !
 ! A7    A(2,4,5)              121.0626         estimate D2E/DX2                !
 ! A8    A(2,4,12)             121.8576         estimate D2E/DX2                !
 ! A9    A(5,4,12)             117.0775         estimate D2E/DX2                !
 ! A10   A(4,5,6)              118.2118         estimate D2E/DX2                !
 ! A11   A(4,5,13)             120.8851         estimate D2E/DX2                !
 ! A12   A(6,5,13)             120.9008         estimate D2E/DX2                !
 ! A13   A(5,6,7)              121.2817         estimate D2E/DX2                !
 ! A14   A(5,6,14)             116.8947         estimate D2E/DX2                !
 ! A15   A(7,6,14)             121.8232         estimate D2E/DX2                !
 ! A16   A(1,7,6)              121.7828         estimate D2E/DX2                !
 ! A17   A(1,7,8)              127.2209         estimate D2E/DX2                !
 ! A18   A(6,7,8)              110.9821         estimate D2E/DX2                !
 ! A19   A(1,9,10)             122.739          estimate D2E/DX2                !
 ! A20   A(1,9,11)             123.8542         estimate D2E/DX2                !
 ! A21   A(10,9,11)            113.3855         estimate D2E/DX2                !
 ! A22   A(9,11,15)            111.7689         estimate D2E/DX2                !
 ! D1    D(7,1,2,3)            176.6844         estimate D2E/DX2                !
 ! D2    D(7,1,2,4)             -0.2093         estimate D2E/DX2                !
 ! D3    D(9,1,2,3)             -3.7834         estimate D2E/DX2                !
 ! D4    D(9,1,2,4)            179.3228         estimate D2E/DX2                !
 ! D5    D(2,1,7,6)              0.5024         estimate D2E/DX2                !
 ! D6    D(2,1,7,8)            179.0039         estimate D2E/DX2                !
 ! D7    D(9,1,7,6)           -179.0261         estimate D2E/DX2                !
 ! D8    D(9,1,7,8)             -0.5247         estimate D2E/DX2                !
 ! D9    D(2,1,9,10)           173.8279         estimate D2E/DX2                !
 ! D10   D(2,1,9,11)            -4.3778         estimate D2E/DX2                !
 ! D11   D(7,1,9,10)            -6.673          estimate D2E/DX2                !
 ! D12   D(7,1,9,11)           175.1214         estimate D2E/DX2                !
 ! D13   D(1,2,4,5)             -0.3396         estimate D2E/DX2                !
 ! D14   D(1,2,4,12)           179.088          estimate D2E/DX2                !
 ! D15   D(3,2,4,5)           -177.6576         estimate D2E/DX2                !
 ! D16   D(3,2,4,12)             1.77           estimate D2E/DX2                !
 ! D17   D(2,4,5,6)              0.5932         estimate D2E/DX2                !
 ! D18   D(2,4,5,13)          -179.9501         estimate D2E/DX2                !
 ! D19   D(12,4,5,6)          -178.8607         estimate D2E/DX2                !
 ! D20   D(12,4,5,13)            0.5959         estimate D2E/DX2                !
 ! D21   D(4,5,6,7)             -0.3007         estimate D2E/DX2                !
 ! D22   D(4,5,6,14)           179.9251         estimate D2E/DX2                !
 ! D23   D(13,5,6,7)          -179.7572         estimate D2E/DX2                !
 ! D24   D(13,5,6,14)            0.4686         estimate D2E/DX2                !
 ! D25   D(5,6,7,1)             -0.2599         estimate D2E/DX2                !
 ! D26   D(5,6,7,8)           -178.9819         estimate D2E/DX2                !
 ! D27   D(14,6,7,1)           179.5031         estimate D2E/DX2                !
 ! D28   D(14,6,7,8)             0.7811         estimate D2E/DX2                !
 ! D29   D(1,9,11,15)          180.0            estimate D2E/DX2                !
 ! D30   D(10,9,11,15)           1.6443         estimate D2E/DX2                !
 --------------------------------------------------------------------------------
 Trust Radius=3.00D-01 FncErr=1.00D-07 GrdErr=1.00D-06 EigMax=2.50D+02 EigMin=1.00D-04
 Number of steps in this run=     77 maximum allowed number of steps=    100.
 GradGradGradGradGradGradGradGradGradGradGradGradGradGradGradGradGradGrad

                          Input orientation:                          
 ---------------------------------------------------------------------
 Center     Atomic      Atomic             Coordinates (Angstroms)
 Number     Number       Type             X           Y           Z
 ---------------------------------------------------------------------
      1          6           0        1.064654    1.689188    0.926582
      2          6           0        1.618251    1.663709    2.170086
      3         17           0        3.057693    0.812686    2.642653
      4          6           0        1.044614    2.278218    3.220958
      5          6           0       -0.100809    2.951563    3.084507
      6          6           0       -0.670908    2.989728    1.877038
      7          6           0       -0.109854    2.374112    0.819292
      8         17           0       -1.059486    2.619245   -0.621422
      9          6           0        1.663600    1.069300   -0.150200
     10          8           0        1.132078    0.987808   -1.242109
     11          8           0        2.879600    0.461500   -0.094800
     12          1           0        1.489557    2.242563    4.231206
     13          1           0       -0.567924    3.454752    3.947513
     14          1           0       -1.617963    3.551408    1.789154
     15          1           0        3.130663    0.085353   -0.946796
 ---------------------------------------------------------------------
                    Distance matrix (angstroms):
                    1          2          3          4          5
     1  C    0.000000
     2  C    1.361403   0.000000
     3  Cl   2.772248   1.737686   0.000000
     4  C    2.368864   1.345739   2.556308   0.000000
     5  C    2.758357   2.334503   3.840074   1.335667   0.000000
     6  C    2.367898   2.661663   4.384991   2.292462   1.335833
     7  C    1.363855   2.305573   3.974425   2.666457   2.337677
     8  Cl   2.788062   3.984449   5.555988   4.394020   3.842318
     9  C    1.379296   2.395643   3.131992   3.634464   4.137558
    10  O    2.280286   3.512304   4.339359   4.646695   4.908763
    11  O    2.417534   2.857624   2.765628   4.202605   5.019088
    12  H    3.377470   2.144727   2.650869   1.104467   2.084914
    13  H    3.861159   3.338629   4.672074   2.124239   1.102803
    14  H    3.377621   3.765846   5.485510   3.280303   2.083148
    15  H    3.217177   3.807039   3.663124   5.150770   5.908382
                    6          7          8          9         10
     6  C    0.000000
     7  C    1.346325   0.000000
     8  Cl   2.555494   1.742855   0.000000
     9  C    3.639734   2.405741   3.168529   0.000000
    10  O    4.121592   2.777338   2.801748   1.217137   0.000000
    11  O    4.783951   3.664763   4.522122   1.360568   2.155725
    12  H    3.281459   3.770489   5.494316   4.539115   5.626667
    13  H    2.124552   3.341164   4.670639   5.240356   5.992328
    14  H    1.104591   2.145006   2.644182   4.548693   4.829423
    15  H    5.555301   4.342630   4.907527   1.937780   2.212685
                   11         12         13         14         15
    11  O    0.000000
    12  H    4.880444   0.000000
    13  H    6.097973   2.404810   0.000000
    14  H    5.772771   4.163337   2.402173   0.000000
    15  H    0.964581   5.844527   6.999047   6.484474   0.000000
 Stoichiometry    C7H4Cl2O2
 Framework group  C1[X(C7H4Cl2O2)]
 Deg. of freedom    39
 Full point group                 C1      NOp   1
 Largest Abelian subgroup         C1      NOp   1
 Largest concise Abelian subgroup C1      NOp   1
                         Standard orientation:                         
 ---------------------------------------------------------------------
 Center     Atomic      Atomic             Coordinates (Angstroms)
 Number     Number       Type             X           Y           Z
 ---------------------------------------------------------------------
      1          6           0        0.006107   -0.190209    0.005605
      2          6           0       -1.092669    0.613517    0.017180
      3         17           0       -2.750664    0.097398   -0.047847
      4          6           0       -0.996779    1.955828    0.021700
      5          6           0        0.193556    2.561724    0.021723
      6          6           0        1.290267    1.799232    0.004944
      7          6           0        1.207370    0.455503   -0.005576
      8         17           0        2.793091   -0.267665    0.002270
      9          6           0       -0.097378   -1.565587    0.014859
     10          8           0        0.866496   -2.299036   -0.105221
     11          8           0       -1.276284   -2.236268    0.122160
     12          1           0       -1.890919    2.604158    0.016164
     13          1           0        0.268729    3.661952    0.026258
     14          1           0        2.262883    2.322813    0.004039
     15          1           0       -1.146504   -3.192004    0.110218
 ---------------------------------------------------------------------
 Rotational constants (GHZ):           1.2509276           0.7768357           0.4797099
 Standard basis: Aug-CC-pVTZ (5D, 7F)
 There are   713 symmetry adapted cartesian basis functions of A   symmetry.
 There are   606 symmetry adapted basis functions of A   symmetry.
   606 basis functions,   984 primitive gaussians,   713 cartesian basis functions
    48 alpha electrons       48 beta electrons
       nuclear repulsion energy       774.6971722632 Hartrees.
 NAtoms=   15 NActive=   15 NUniq=   15 SFac= 1.00D+00 NAtFMM=   60 NAOKFM=F Big=F
 Integral buffers will be    131072 words long.
 Raffenetti 2 integral format.
 Two-electron integral symmetry is turned on.
 One-electron integrals computed using PRISM.
 NBasis=   606 RedAO= T EigKep=  1.35D-06  NBF=   606
 NBsUse=   603 1.00D-06 EigRej=  9.30D-07 NBFU=   603
 ExpMin= 2.53D-02 ExpMax= 4.56D+05 ExpMxC= 1.44D+03 IAcc=3 IRadAn=         5 AccDes= 0.00D+00
 Harris functional with IExCor= 1009 and IRadAn=       5 diagonalized for initial guess.
 HarFok:  IExCor= 1009 AccDes= 0.00D+00 IRadAn=         5 IDoV= 1 UseB2=F ITyADJ=14
 ICtDFT=  3500011 ScaDFX=  1.000000  1.000000  1.000000  1.000000
 FoFCou: FMM=F IPFlag=           0 FMFlag=      100000 FMFlg1=           0
         NFxFlg=           0 DoJE=T BraDBF=F KetDBF=T FulRan=T
         wScrn=  0.000000 ICntrl=       500 IOpCl=  0 I1Cent=   200000004 NGrid=           0
         NMat0=    1 NMatS0=      1 NMatT0=    0 NMatD0=    1 NMtDS0=    0 NMtDT0=    0
 Petite list used in FoFCou.
 Requested convergence on RMS density matrix=1.00D-08 within 128 cycles.
 Requested convergence on MAX density matrix=1.00D-06.
 Requested convergence on             energy=1.00D-06.
 No special actions if energy rises.
 SCF Done:  E(RM062X) =  -1339.98367842     A.U. after   14 cycles
            NFock= 14  Conv=0.39D-08     -V/T= 2.0024

 **********************************************************************

            Population analysis using the SCF Density.

 **********************************************************************

 Orbital symmetries:
       Occupied  (A) (A) (A) (A) (A) (A) (A) (A) (A) (A) (A) (A)
                 (A) (A) (A) (A) (A) (A) (A) (A) (A) (A) (A) (A)
                 (A) (A) (A) (A) (A) (A) (A) (A) (A) (A) (A) (A)
                 (A) (A) (A) (A) (A) (A) (A) (A) (A) (A) (A) (A)
       Virtual   (A) (A) (A) (A) (A) (A) (A) (A) (A) (A) (A) (A)
                 (A) (A) (A) (A) (A) (A) (A) (A) (A) (A) (A) (A)
                 (A) (A) (A) (A) (A) (A) (A) (A) (A) (A) (A) (A)
                 (A) (A) (A) (A) (A) (A) (A) (A) (A) (A) (A) (A)
                 (A) (A) (A) (A) (A) (A) (A) (A) (A) (A) (A) (A)
                 (A) (A) (A) (A) (A) (A) (A) (A) (A) (A) (A) (A)
                 (A) (A) (A) (A) (A) (A) (A) (A) (A) (A) (A) (A)
                 (A) (A) (A) (A) (A) (A) (A) (A) (A) (A) (A) (A)
                 (A) (A) (A) (A) (A) (A) (A) (A) (A) (A) (A) (A)
                 (A) (A) (A) (A) (A) (A) (A) (A) (A) (A) (A) (A)
                 (A) (A) (A) (A) (A) (A) (A) (A) (A) (A) (A) (A)
                 (A) (A) (A) (A) (A) (A) (A) (A) (A) (A) (A) (A)
                 (A) (A) (A) (A) (A) (A) (A) (A) (A) (A) (A) (A)
                 (A) (A) (A) (A) (A) (A) (A) (A) (A) (A) (A) (A)
                 (A) (A) (A) (A) (A) (A) (A) (A) (A) (A) (A) (A)
                 (A) (A) (A) (A) (A) (A) (A) (A) (A) (A) (A) (A)
                 (A) (A) (A) (A) (A) (A) (A) (A) (A) (A) (A) (A)
                 (A) (A) (A) (A) (A) (A) (A) (A) (A) (A) (A) (A)
                 (A) (A) (A) (A) (A) (A) (A) (A) (A) (A) (A) (A)
                 (A) (A) (A) (A) (A) (A) (A) (A) (A) (A) (A) (A)
                 (A) (A) (A) (A) (A) (A) (A) (A) (A) (A) (A) (A)
                 (A) (A) (A) (A) (A) (A) (A) (A) (A) (A) (A) (A)
                 (A) (A) (A) (A) (A) (A) (A) (A) (A) (A) (A) (A)
                 (A) (A) (A) (A) (A) (A) (A) (A) (A) (A) (A) (A)
                 (A) (A) (A) (A) (A) (A) (A) (A) (A) (A) (A) (A)
                 (A) (A) (A) (A) (A) (A) (A) (A) (A) (A) (A) (A)
                 (A) (A) (A) (A) (A) (A) (A) (A) (A) (A) (A) (A)
                 (A) (A) (A) (A) (A) (A) (A) (A) (A) (A) (A) (A)
                 (A) (A) (A) (A) (A) (A) (A) (A) (A) (A) (A) (A)
                 (A) (A) (A) (A) (A) (A) (A) (A) (A) (A) (A) (A)
                 (A) (A) (A) (A) (A) (A) (A) (A) (A) (A) (A) (A)
                 (A) (A) (A) (A) (A) (A) (A) (A) (A) (A) (A) (A)
                 (A) (A) (A) (A) (A) (A) (A) (A) (A) (A) (A) (A)
                 (A) (A) (A) (A) (A) (A) (A) (A) (A) (A) (A) (A)
                 (A) (A) (A) (A) (A) (A) (A) (A) (A) (A) (A) (A)
                 (A) (A) (A) (A) (A) (A) (A) (A) (A) (A) (A) (A)
                 (A) (A) (A) (A) (A) (A) (A) (A) (A) (A) (A) (A)
                 (A) (A) (A) (A) (A) (A) (A) (A) (A) (A) (A) (A)
                 (A) (A) (A) (A) (A) (A) (A) (A) (A) (A) (A) (A)
                 (A) (A) (A) (A) (A) (A) (A) (A) (A) (A) (A) (A)
                 (A) (A) (A) (A) (A) (A) (A) (A) (A) (A) (A) (A)
                 (A) (A) (A) (A) (A) (A) (A) (A) (A) (A) (A) (A)
                 (A) (A) (A) (A) (A) (A) (A) (A) (A) (A) (A) (A)
                 (A) (A) (A) (A) (A) (A) (A) (A) (A) (A) (A) (A)
                 (A) (A) (A) (A) (A) (A) (A) (A) (A) (A) (A) (A)
                 (A) (A) (A) (A) (A) (A) (A) (A) (A) (A) (A) (A)
                 (A) (A) (A)
 The electronic state is 1-A.
 Alpha  occ. eigenvalues -- -102.68986-102.68522 -19.66771 -19.61322 -10.68691
 Alpha  occ. eigenvalues --  -10.63345 -10.63264 -10.59162 -10.57220 -10.56551
 Alpha  occ. eigenvalues --  -10.56535  -9.82706  -9.82199  -7.54959  -7.54456
 Alpha  occ. eigenvalues --   -7.54394  -7.54337  -7.53893  -7.53821  -1.24243
 Alpha  occ. eigenvalues --   -1.13359  -1.05777  -0.99305  -0.94998  -0.91722
 Alpha  occ. eigenvalues --   -0.84917  -0.78937  -0.72300  -0.69759  -0.64407
 Alpha  occ. eigenvalues --   -0.60238  -0.58359  -0.56973  -0.56191  -0.53390
 Alpha  occ. eigenvalues --   -0.51415  -0.50590  -0.49291  -0.46552  -0.45011
 Alpha  occ. eigenvalues --   -0.44425  -0.40473  -0.40003  -0.39697  -0.38055
 Alpha  occ. eigenvalues --   -0.34862  -0.34372  -0.31939
 Alpha virt. eigenvalues --   -0.04984  -0.01142  -0.01007   0.00010   0.00716
 Alpha virt. eigenvalues --    0.01432   0.02808   0.03113   0.03409   0.03644
 Alpha virt. eigenvalues --    0.04815   0.05810   0.06394   0.06522   0.06658
 Alpha virt. eigenvalues --    0.06818   0.07267   0.08214   0.08267   0.08963
 Alpha virt. eigenvalues --    0.09086   0.09304   0.09478   0.09673   0.09914
 Alpha virt. eigenvalues --    0.10852   0.11880   0.12526   0.12888   0.13456
 Alpha virt. eigenvalues --    0.13843   0.13950   0.14614   0.15560   0.15670
 Alpha virt. eigenvalues --    0.15816   0.16198   0.16609   0.17084   0.18546
 Alpha virt. eigenvalues --    0.18893   0.19231   0.19444   0.20094   0.20832
 Alpha virt. eigenvalues --    0.21175   0.21375   0.21662   0.22146   0.23315
 Alpha virt. eigenvalues --    0.23546   0.23741   0.24242   0.24882   0.25129
 Alpha virt. eigenvalues --    0.25856   0.26561   0.26713   0.27144   0.28019
 Alpha virt. eigenvalues --    0.28502   0.30084   0.30287   0.30929   0.31441
 Alpha virt. eigenvalues --    0.31541   0.31970   0.33047   0.33483   0.33662
 Alpha virt. eigenvalues --    0.33709   0.34005   0.34976   0.35076   0.35274
 Alpha virt. eigenvalues --    0.35792   0.35913   0.37536   0.37940   0.37988
 Alpha virt. eigenvalues --    0.38365   0.39283   0.39810   0.40529   0.40736
 Alpha virt. eigenvalues --    0.40915   0.41395   0.42155   0.42504   0.42572
 Alpha virt. eigenvalues --    0.42974   0.43220   0.43747   0.44690   0.45289
 Alpha virt. eigenvalues --    0.46068   0.46854   0.47160   0.47614   0.49313
 Alpha virt. eigenvalues --    0.50195   0.50962   0.52778   0.52842   0.52931
 Alpha virt. eigenvalues --    0.54119   0.54950   0.55073   0.56010   0.56405
 Alpha virt. eigenvalues --    0.58182   0.58396   0.58680   0.59901   0.60451
 Alpha virt. eigenvalues --    0.61060   0.61387   0.62090   0.62816   0.63272
 Alpha virt. eigenvalues --    0.64761   0.65650   0.66859   0.67815   0.67986
 Alpha virt. eigenvalues --    0.68193   0.69833   0.69977   0.70544   0.71397
 Alpha virt. eigenvalues --    0.71924   0.72436   0.72539   0.72952   0.73283
 Alpha virt. eigenvalues --    0.73456   0.73727   0.73936   0.74229   0.74964
 Alpha virt. eigenvalues --    0.75728   0.76396   0.76553   0.77265   0.77956
 Alpha virt. eigenvalues --    0.78511   0.78614   0.79344   0.79942   0.81041
 Alpha virt. eigenvalues --    0.81999   0.82343   0.82579   0.83419   0.84173
 Alpha virt. eigenvalues --    0.84343   0.84867   0.85476   0.85818   0.86943
 Alpha virt. eigenvalues --    0.87435   0.87561   0.88394   0.89111   0.89483
 Alpha virt. eigenvalues --    0.89771   0.90017   0.91022   0.91552   0.92344
 Alpha virt. eigenvalues --    0.92863   0.93180   0.93797   0.94880   0.95251
 Alpha virt. eigenvalues --    0.96281   0.96651   0.97253   0.98085   0.98577
 Alpha virt. eigenvalues --    0.99067   1.00391   1.00476   1.00831   1.02040
 Alpha virt. eigenvalues --    1.02799   1.04140   1.04737   1.04866   1.05598
 Alpha virt. eigenvalues --    1.06237   1.07898   1.08659   1.09371   1.10168
 Alpha virt. eigenvalues --    1.10937   1.11116   1.11566   1.12125   1.12451
 Alpha virt. eigenvalues --    1.14109   1.14940   1.15856   1.16018   1.17005
 Alpha virt. eigenvalues --    1.17617   1.19054   1.19681   1.20587   1.21064
 Alpha virt. eigenvalues --    1.22313   1.22818   1.24287   1.24950   1.25578
 Alpha virt. eigenvalues --    1.26947   1.27575   1.28982   1.30553   1.32669
 Alpha virt. eigenvalues --    1.33609   1.34388   1.34914   1.36764   1.37837
 Alpha virt. eigenvalues --    1.38098   1.38422   1.40353   1.42003   1.42088
 Alpha virt. eigenvalues --    1.43461   1.43692   1.44513   1.45742   1.46239
 Alpha virt. eigenvalues --    1.46998   1.48594   1.50115   1.50878   1.51088
 Alpha virt. eigenvalues --    1.52184   1.52777   1.53771   1.53962   1.55662
 Alpha virt. eigenvalues --    1.56711   1.57622   1.59002   1.59393   1.60174
 Alpha virt. eigenvalues --    1.60994   1.62280   1.64178   1.64205   1.64822
 Alpha virt. eigenvalues --    1.65284   1.66071   1.67524   1.68028   1.68135
 Alpha virt. eigenvalues --    1.68933   1.70745   1.71743   1.72079   1.73761
 Alpha virt. eigenvalues --    1.75293   1.75668   1.76183   1.76591   1.78321
 Alpha virt. eigenvalues --    1.79158   1.79936   1.82189   1.82585   1.83588
 Alpha virt. eigenvalues --    1.84018   1.85479   1.86759   1.88454   1.89831
 Alpha virt. eigenvalues --    1.91361   1.92506   1.93672   1.94560   1.95304
 Alpha virt. eigenvalues --    1.96595   1.96946   1.98798   1.99253   1.99768
 Alpha virt. eigenvalues --    2.01192   2.02676   2.05589   2.07673   2.09435
 Alpha virt. eigenvalues --    2.09761   2.10822   2.11556   2.12995   2.16143
 Alpha virt. eigenvalues --    2.17039   2.19183   2.20673   2.22229   2.23101
 Alpha virt. eigenvalues --    2.25091   2.26703   2.26729   2.29597   2.30680
 Alpha virt. eigenvalues --    2.32081   2.32795   2.33523   2.34290   2.36023
 Alpha virt. eigenvalues --    2.36475   2.37119   2.39075   2.39915   2.40454
 Alpha virt. eigenvalues --    2.41544   2.43170   2.43628   2.44167   2.45352
 Alpha virt. eigenvalues --    2.47258   2.48025   2.50140   2.52435   2.52945
 Alpha virt. eigenvalues --    2.53840   2.55173   2.59714   2.60399   2.61534
 Alpha virt. eigenvalues --    2.65336   2.66788   2.67270   2.68688   2.70904
 Alpha virt. eigenvalues --    2.71901   2.73100   2.76131   2.79267   2.79724
 Alpha virt. eigenvalues --    2.81356   2.82278   2.83103   2.84013   2.85414
 Alpha virt. eigenvalues --    2.86315   2.86776   2.87741   2.88313   2.89987
 Alpha virt. eigenvalues --    2.90452   2.91943   2.92905   2.93561   2.94156
 Alpha virt. eigenvalues --    2.94795   2.96945   2.97913   2.98579   2.99540
 Alpha virt. eigenvalues --    3.01200   3.01602   3.02648   3.03507   3.04834
 Alpha virt. eigenvalues --    3.06574   3.07915   3.08825   3.10441   3.11247
 Alpha virt. eigenvalues --    3.11710   3.11944   3.14232   3.14260   3.14887
 Alpha virt. eigenvalues --    3.16180   3.18286   3.19180   3.20288   3.21380
 Alpha virt. eigenvalues --    3.22973   3.24258   3.24510   3.26818   3.27334
 Alpha virt. eigenvalues --    3.28181   3.29777   3.30497   3.33527   3.36671
 Alpha virt. eigenvalues --    3.37443   3.38390   3.39340   3.40310   3.41517
 Alpha virt. eigenvalues --    3.43238   3.44796   3.47258   3.49090   3.49353
 Alpha virt. eigenvalues --    3.50529   3.51187   3.52090   3.55806   3.56431
 Alpha virt. eigenvalues --    3.58525   3.58664   3.59048   3.61726   3.63084
 Alpha virt. eigenvalues --    3.63508   3.64887   3.65795   3.66082   3.68444
 Alpha virt. eigenvalues --    3.73361   3.74005   3.75055   3.76212   3.76865
 Alpha virt. eigenvalues --    3.77736   3.79832   3.81865   3.82542   3.83680
 Alpha virt. eigenvalues --    3.84347   3.86202   3.86313   3.88851   3.90425
 Alpha virt. eigenvalues --    3.91337   3.93973   3.95160   3.96571   3.97559
 Alpha virt. eigenvalues --    3.98591   3.99802   4.02057   4.02307   4.03309
 Alpha virt. eigenvalues --    4.03523   4.07189   4.08401   4.09529   4.10558
 Alpha virt. eigenvalues --    4.11203   4.13513   4.15517   4.17349   4.18621
 Alpha virt. eigenvalues --    4.21036   4.22418   4.24142   4.25714   4.29912
 Alpha virt. eigenvalues --    4.33584   4.35291   4.37079   4.38342   4.39877
 Alpha virt. eigenvalues --    4.41629   4.46354   4.46757   4.47490   4.49170
 Alpha virt. eigenvalues --    4.51195   4.53848   4.56289   4.59224   4.61093
 Alpha virt. eigenvalues --    4.62109   4.64210   4.65356   4.69694   4.71698
 Alpha virt. eigenvalues --    4.72886   4.74077   4.74788   4.77128   4.78279
 Alpha virt. eigenvalues --    4.80024   4.83977   4.84941   4.87941   4.90472
 Alpha virt. eigenvalues --    4.93023   4.95751   4.97724   5.02947   5.04982
 Alpha virt. eigenvalues --    5.08235   5.08972   5.13013   5.17296   5.28105
 Alpha virt. eigenvalues --    5.28655   5.30487   5.34225   5.43695   5.54497
 Alpha virt. eigenvalues --    5.62784   5.65236   5.71105   5.74443   5.81639
 Alpha virt. eigenvalues --    5.84401   5.88534   5.96809   6.04382   6.19855
 Alpha virt. eigenvalues --    6.22442   6.25777   6.27338   6.36600   6.37472
 Alpha virt. eigenvalues --    6.39267   6.42953   6.52224   6.54353   6.58248
 Alpha virt. eigenvalues --    6.61487   6.70483   6.75134   6.77691   6.79692
 Alpha virt. eigenvalues --    6.81731   6.86909   6.88360   6.94604   7.08120
 Alpha virt. eigenvalues --    7.10541   7.13443   7.13969   7.29970   7.37595
 Alpha virt. eigenvalues --    7.49509   7.64570   7.83566   8.01745   8.28716
 Alpha virt. eigenvalues --    8.60715  15.28498  15.51009  16.74156  17.42446
 Alpha virt. eigenvalues --   17.79691  19.02388  19.57631  19.94317  19.98524
          Condensed to atoms (all electrons):
               1          2          3          4          5          6
     1  C    7.761908  -0.901741   0.003238   0.139133  -0.268593   0.032528
     2  C   -0.901741   7.376501   0.257493  -0.235642   0.068912  -0.387233
     3  Cl   0.003238   0.257493  17.396391  -0.227022   0.038948  -0.002600
     4  C    0.139133  -0.235642  -0.227022   7.175844  -0.370143   0.053558
     5  C   -0.268593   0.068912   0.038948  -0.370143   6.720123  -0.360582
     6  C    0.032528  -0.387233  -0.002600   0.053558  -0.360582   6.986939
     7  C   -0.980849   0.282797   0.026814  -0.402743   0.115788  -0.113881
     8  Cl   0.003803   0.027535  -0.002119   0.000886   0.043137  -0.217941
     9  C   -0.821198  -0.772738  -0.053943   0.214113   0.041405   0.206624
    10  O   -0.287275   0.010829  -0.000333   0.006504  -0.012182   0.021746
    11  O   -0.121317  -0.008998  -0.109763   0.005389  -0.008299   0.006720
    12  H    0.103486  -0.405899  -0.112544   0.666838  -0.400070   0.065770
    13  H   -0.114101   0.127127  -0.001732  -0.352743   0.580391  -0.351019
    14  H    0.033206  -0.049405   0.000311   0.066714  -0.377650   0.731359
    15  H    0.031459   0.002708   0.013117  -0.003777   0.001944  -0.002539
               7          8          9         10         11         12
     1  C   -0.980849   0.003803  -0.821198  -0.287275  -0.121317   0.103486
     2  C    0.282797   0.027535  -0.772738   0.010829  -0.008998  -0.405899
     3  Cl   0.026814  -0.002119  -0.053943  -0.000333  -0.109763  -0.112544
     4  C   -0.402743   0.000886   0.214113   0.006504   0.005389   0.666838
     5  C    0.115788   0.043137   0.041405  -0.012182  -0.008299  -0.400070
     6  C   -0.113881  -0.217941   0.206624   0.021746   0.006720   0.065770
     7  C    7.278778   0.275604  -0.615325   0.074430   0.024412  -0.062766
     8  Cl   0.275604  17.329769  -0.038445  -0.104194  -0.002849   0.000223
     9  C   -0.615325  -0.038445   8.031956   0.116321   0.139852   0.029621
    10  O    0.074430  -0.104194   0.116321   9.255946  -0.180691   0.001321
    11  O    0.024412  -0.002849   0.139852  -0.180691   8.548297  -0.002062
    12  H   -0.062766   0.000223   0.029621   0.001321  -0.002062   1.024014
    13  H    0.121678  -0.001625  -0.019235  -0.000900  -0.000574  -0.122577
    14  H   -0.375332  -0.127706   0.030044   0.000140   0.001168  -0.001274
    15  H   -0.017430   0.001829   0.031411  -0.101672   0.184091  -0.000150
              13         14         15
     1  C   -0.114101   0.033206   0.031459
     2  C    0.127127  -0.049405   0.002708
     3  Cl  -0.001732   0.000311   0.013117
     4  C   -0.352743   0.066714  -0.003777
     5  C    0.580391  -0.377650   0.001944
     6  C   -0.351019   0.731359  -0.002539
     7  C    0.121678  -0.375332  -0.017430
     8  Cl  -0.001625  -0.127706   0.001829
     9  C   -0.019235   0.030044   0.031411
    10  O   -0.000900   0.000140  -0.101672
    11  O   -0.000574   0.001168   0.184091
    12  H   -0.122577  -0.001274  -0.000150
    13  H    0.881070  -0.096517  -0.000005
    14  H   -0.096517   0.935617  -0.000055
    15  H   -0.000005  -0.000055   0.587891
 Mulliken charges:
               1
     1  C    1.386313
     2  C    0.607754
     3  Cl  -0.226256
     4  C   -0.736909
     5  C    0.186872
     6  C   -0.669449
     7  C    0.368024
     8  Cl  -0.187906
     9  C   -0.520462
    10  O   -0.799991
    11  O   -0.475377
    12  H    0.216069
    13  H    0.350762
    14  H    0.229378
    15  H    0.271179
 Sum of Mulliken charges =   0.00000
 Mulliken charges with hydrogens summed into heavy atoms:
               1
     1  C    1.386313
     2  C    0.607754
     3  Cl  -0.226256
     4  C   -0.520839
     5  C    0.537634
     6  C   -0.440072
     7  C    0.368024
     8  Cl  -0.187906
     9  C   -0.520462
    10  O   -0.799991
    11  O   -0.204198
 Electronic spatial extent (au):  <R**2>=           2101.6732
 Charge=              0.0000 electrons
 Dipole moment (field-independent basis, Debye):
    X=             -1.0136    Y=              2.8962    Z=              0.1820  Tot=              3.0738
 Quadrupole moment (field-independent basis, Debye-Ang):
   XX=            -79.3284   YY=            -65.1901   ZZ=            -77.0322
   XY=              5.7307   XZ=              0.3368   YZ=             -0.5611
 Traceless Quadrupole moment (field-independent basis, Debye-Ang):
   XX=             -5.4782   YY=              8.6601   ZZ=             -3.1819
   XY=              5.7307   XZ=              0.3368   YZ=             -0.5611
 Octapole moment (field-independent basis, Debye-Ang**2):
  XXX=              0.0533  YYY=             -8.7735  ZZZ=             -0.2298  XYY=            -18.1155
  XXY=              0.9855  XXZ=             -0.3423  XZZ=             -0.7641  YZZ=            -10.0447
  YYZ=              2.2572  XYZ=             -0.7179
 Hexadecapole moment (field-independent basis, Debye-Ang**3):
 XXXX=          -1487.2862 YYYY=           -879.3232 ZZZZ=            -83.3711 XXXY=              2.7275
 XXXZ=              1.3013 YYYX=             75.3849 YYYZ=             -7.1062 ZZZX=             -0.1284
 ZZZY=             -0.5222 XXYY=           -414.3413 XXZZ=           -277.0152 YYZZ=           -203.3877
 XXYZ=             -0.0256 YYXZ=              0.4379 ZZXY=             -0.0268
 N-N= 7.746971722632D+02 E-N=-4.717702553384D+03  KE= 1.336802911510D+03
 ******************************Gaussian NBO Version 3.1******************************
             N A T U R A L   A T O M I C   O R B I T A L   A N D
          N A T U R A L   B O N D   O R B I T A L   A N A L Y S I S
 ******************************Gaussian NBO Version 3.1******************************
       /RESON  / : Allow strongly delocalized NBO set

 Analyzing the SCF density

 Job title: 18                                                              

 Storage needed:   1104294 in NPA,   1471037 in NBO (********** available)
 GSVD:  LWork=       52026 too small for GESVD, short by      574839 words or      574839 for optimal perf.


 NATURAL POPULATIONS:  Natural atomic orbital occupancies 
                                                          
   NAO  Atom  No  lang   Type(AO)    Occupancy      Energy
 ----------------------------------------------------------
     1    C    1  S      Cor( 1S)     1.99860     -10.41240
     2    C    1  S      Val( 2S)     0.89052      -0.15519
     3    C    1  S      Ryd( 3S)     0.00106       1.88196
     4    C    1  S      Ryd( 4S)     0.00008       2.48623
     5    C    1  S      Ryd( 5S)     0.00004       3.68765
     6    C    1  px     Val( 2p)     1.14242      -0.15454
     7    C    1  px     Ryd( 4p)     0.00605       2.04101
     8    C    1  px     Ryd( 5p)     0.00012       2.75706
     9    C    1  px     Ryd( 3p)     0.00005       0.99949
    10    C    1  py     Val( 2p)     1.12268      -0.15199
    11    C    1  py     Ryd( 4p)     0.00582       2.51858
    12    C    1  py     Ryd( 5p)     0.00005       2.57112
    13    C    1  py     Ryd( 3p)     0.00011       1.16788
    14    C    1  pz     Val( 2p)     1.09695      -0.16524
    15    C    1  pz     Ryd( 4p)     0.00210       0.89313
    16    C    1  pz     Ryd( 5p)     0.00011       2.08760
    17    C    1  pz     Ryd( 3p)     0.00003       0.59958
    18    C    1  dxy    Ryd( 3d)     0.00072       2.18511
    19    C    1  dxy    Ryd( 4d)     0.00038       4.03454
    20    C    1  dxy    Ryd( 5d)     0.00011       6.66448
    21    C    1  dxz    Ryd( 3d)     0.00045       0.75681
    22    C    1  dxz    Ryd( 5d)     0.00026       3.33178
    23    C    1  dxz    Ryd( 4d)     0.00007       2.66889
    24    C    1  dyz    Ryd( 3d)     0.00041       0.97033
    25    C    1  dyz    Ryd( 5d)     0.00015       3.38543
    26    C    1  dyz    Ryd( 4d)     0.00006       2.48733
    27    C    1  dx2y2  Ryd( 3d)     0.00214       2.47042
    28    C    1  dx2y2  Ryd( 4d)     0.00049       4.06441
    29    C    1  dx2y2  Ryd( 5d)     0.00004       5.25464
    30    C    1  dz2    Ryd( 3d)     0.00052       0.72178
    31    C    1  dz2    Ryd( 4d)     0.00028       4.16752
    32    C    1  dz2    Ryd( 5d)     0.00007       4.31718
    33    C    1  f(0)   Ryd( 4f)     0.00039       1.57262
    34    C    1  f(0)   Ryd( 5f)     0.00046       3.49965
    35    C    1  f(C1)  Ryd( 4f)     0.00097       2.13149
    36    C    1  f(C1)  Ryd( 5f)     0.00031       3.75948
    37    C    1  f(S1)  Ryd( 4f)     0.00065       2.06842
    38    C    1  f(S1)  Ryd( 5f)     0.00051       3.68855
    39    C    1  f(C2)  Ryd( 4f)     0.00072       1.42344
    40    C    1  f(C2)  Ryd( 5f)     0.00003       3.49286
    41    C    1  f(S2)  Ryd( 4f)     0.00093       1.47017
    42    C    1  f(S2)  Ryd( 5f)     0.00004       3.50753
    43    C    1  f(C3)  Ryd( 4f)     0.00241       2.42018
    44    C    1  f(C3)  Ryd( 5f)     0.00027       4.38329
    45    C    1  f(S3)  Ryd( 4f)     0.00122       3.37645
    46    C    1  f(S3)  Ryd( 5f)     0.00013       4.74704
 
    47    C    2  S      Cor( 1S)     1.99847     -10.48278
    48    C    2  S      Val( 2S)     0.91221      -0.23327
    49    C    2  S      Ryd( 3S)     0.00102       1.56752
    50    C    2  S      Ryd( 5S)     0.00018       2.89529
    51    C    2  S      Ryd( 4S)     0.00003       2.35897
    52    C    2  px     Val( 2p)     0.94193      -0.15865
    53    C    2  px     Ryd( 4p)     0.00604       1.57826
    54    C    2  px     Ryd( 5p)     0.00031       3.40035
    55    C    2  px     Ryd( 3p)     0.00009       1.28035
    56    C    2  py     Val( 2p)     1.05079      -0.11741
    57    C    2  py     Ryd( 4p)     0.00465       1.59491
    58    C    2  py     Ryd( 5p)     0.00008       3.23900
    59    C    2  py     Ryd( 3p)     0.00008       1.16645
    60    C    2  pz     Val( 2p)     1.01626      -0.17575
    61    C    2  pz     Ryd( 4p)     0.00126       0.79611
    62    C    2  pz     Ryd( 5p)     0.00019       2.11525
    63    C    2  pz     Ryd( 3p)     0.00007       0.66609
    64    C    2  dxy    Ryd( 4d)     0.00099       3.11899
    65    C    2  dxy    Ryd( 3d)     0.00026       2.97655
    66    C    2  dxy    Ryd( 5d)     0.00010       4.62641
    67    C    2  dxz    Ryd( 3d)     0.00130       1.48917
    68    C    2  dxz    Ryd( 4d)     0.00005       2.24777
    69    C    2  dxz    Ryd( 5d)     0.00008       2.66908
    70    C    2  dyz    Ryd( 3d)     0.00089       1.63396
    71    C    2  dyz    Ryd( 4d)     0.00007       2.33893
    72    C    2  dyz    Ryd( 5d)     0.00003       2.81814
    73    C    2  dx2y2  Ryd( 3d)     0.00110       2.98547
    74    C    2  dx2y2  Ryd( 4d)     0.00025       3.15669
    75    C    2  dx2y2  Ryd( 5d)     0.00020       4.39665
    76    C    2  dz2    Ryd( 3d)     0.00107       1.87990
    77    C    2  dz2    Ryd( 4d)     0.00019       3.26415
    78    C    2  dz2    Ryd( 5d)     0.00010       4.09687
    79    C    2  f(0)   Ryd( 4f)     0.00125       1.32327
    80    C    2  f(0)   Ryd( 5f)     0.00007       3.45794
    81    C    2  f(C1)  Ryd( 4f)     0.00123       1.64570
    82    C    2  f(C1)  Ryd( 5f)     0.00020       3.53058
    83    C    2  f(S1)  Ryd( 4f)     0.00103       1.85773
    84    C    2  f(S1)  Ryd( 5f)     0.00020       3.65898
    85    C    2  f(C2)  Ryd( 4f)     0.00096       1.26829
    86    C    2  f(C2)  Ryd( 5f)     0.00008       3.55683
    87    C    2  f(S2)  Ryd( 4f)     0.00052       1.23942
    88    C    2  f(S2)  Ryd( 5f)     0.00006       3.47814
    89    C    2  f(C3)  Ryd( 4f)     0.00203       2.00314
    90    C    2  f(C3)  Ryd( 5f)     0.00034       4.29950
    91    C    2  f(S3)  Ryd( 4f)     0.00138       2.66814
    92    C    2  f(S3)  Ryd( 5f)     0.00011       4.10794
 
    93   Cl    3  S      Cor( 1S)     2.00000    -101.21140
    94   Cl    3  S      Cor( 2S)     1.99975     -11.00980
    95   Cl    3  S      Val( 3S)     1.82959      -1.06247
    96   Cl    3  S      Ryd( 5S)     0.00192       1.76369
    97   Cl    3  S      Ryd( 4S)     0.00013       1.30839
    98   Cl    3  S      Ryd( 6S)     0.00001       5.73463
    99   Cl    3  px     Cor( 2p)     1.99993      -7.54259
   100   Cl    3  px     Val( 3p)     1.26875      -0.30199
   101   Cl    3  px     Ryd( 5p)     0.00183       0.68448
   102   Cl    3  px     Ryd( 4p)     0.00008       0.51661
   103   Cl    3  px     Ryd( 6p)     0.00004       2.92631
   104   Cl    3  py     Cor( 2p)     1.99998      -7.53887
   105   Cl    3  py     Val( 3p)     1.92248      -0.38349
   106   Cl    3  py     Ryd( 4p)     0.00164       0.73361
   107   Cl    3  py     Ryd( 5p)     0.00014       0.78433
   108   Cl    3  py     Ryd( 6p)     0.00002       2.76473
   109   Cl    3  pz     Cor( 2p)     1.99999      -7.53928
   110   Cl    3  pz     Val( 3p)     1.91737      -0.39040
   111   Cl    3  pz     Ryd( 5p)     0.00196       0.64033
   112   Cl    3  pz     Ryd( 4p)     0.00004       0.55460
   113   Cl    3  pz     Ryd( 6p)     0.00001       2.46066
   114   Cl    3  dxy    Ryd( 4d)     0.00133       1.99569
   115   Cl    3  dxy    Ryd( 3d)     0.00014       1.28071
   116   Cl    3  dxy    Ryd( 5d)     0.00005       2.66289
   117   Cl    3  dxz    Ryd( 4d)     0.00127       1.47803
   118   Cl    3  dxz    Ryd( 3d)     0.00019       1.07753
   119   Cl    3  dxz    Ryd( 5d)     0.00002       2.44705
   120   Cl    3  dyz    Ryd( 4d)     0.00020       1.20275
   121   Cl    3  dyz    Ryd( 3d)     0.00008       0.85518
   122   Cl    3  dyz    Ryd( 5d)     0.00003       2.15250
   123   Cl    3  dx2y2  Ryd( 4d)     0.00261       2.10935
   124   Cl    3  dx2y2  Ryd( 3d)     0.00006       1.34371
   125   Cl    3  dx2y2  Ryd( 5d)     0.00003       2.59686
   126   Cl    3  dz2    Ryd( 4d)     0.00116       1.40820
   127   Cl    3  dz2    Ryd( 3d)     0.00014       1.38141
   128   Cl    3  dz2    Ryd( 5d)     0.00003       2.49190
   129   Cl    3  f(0)   Ryd( 4f)     0.00006       1.32553
   130   Cl    3  f(0)   Ryd( 5f)     0.00002       2.87452
   131   Cl    3  f(C1)  Ryd( 4f)     0.00002       1.72865
   132   Cl    3  f(C1)  Ryd( 5f)     0.00008       2.95035
   133   Cl    3  f(S1)  Ryd( 4f)     0.00004       1.44148
   134   Cl    3  f(S1)  Ryd( 5f)     0.00002       2.94536
   135   Cl    3  f(C2)  Ryd( 4f)     0.00012       1.34248
   136   Cl    3  f(C2)  Ryd( 5f)     0.00004       2.85933
   137   Cl    3  f(S2)  Ryd( 4f)     0.00004       1.40074
   138   Cl    3  f(S2)  Ryd( 5f)     0.00002       2.87480
   139   Cl    3  f(C3)  Ryd( 4f)     0.00007       1.68086
   140   Cl    3  f(C3)  Ryd( 5f)     0.00008       3.07778
   141   Cl    3  f(S3)  Ryd( 4f)     0.00018       1.63224
   142   Cl    3  f(S3)  Ryd( 5f)     0.00008       3.05029
 
   143    C    4  S      Cor( 1S)     1.99900     -10.39418
   144    C    4  S      Val( 2S)     0.94529      -0.20487
   145    C    4  S      Ryd( 3S)     0.00190       1.89856
   146    C    4  S      Ryd( 5S)     0.00010       2.59512
   147    C    4  S      Ryd( 4S)     0.00002       2.01892
   148    C    4  px     Val( 2p)     1.15602      -0.10892
   149    C    4  px     Ryd( 4p)     0.00633       1.74440
   150    C    4  px     Ryd( 5p)     0.00011       1.99920
   151    C    4  px     Ryd( 3p)     0.00004       1.39952
   152    C    4  py     Val( 2p)     1.11255      -0.11183
   153    C    4  py     Ryd( 5p)     0.00418       1.75093
   154    C    4  py     Ryd( 4p)     0.00009       1.69711
   155    C    4  py     Ryd( 3p)     0.00003       1.42131
   156    C    4  pz     Val( 2p)     1.00181      -0.14369
   157    C    4  pz     Ryd( 3p)     0.00100       0.93223
   158    C    4  pz     Ryd( 5p)     0.00001       1.22019
   159    C    4  pz     Ryd( 4p)     0.00005       0.96507
   160    C    4  dxy    Ryd( 3d)     0.00201       2.15782
   161    C    4  dxy    Ryd( 5d)     0.00025       3.86694
   162    C    4  dxy    Ryd( 4d)     0.00010       2.97494
   163    C    4  dxz    Ryd( 3d)     0.00046       1.29934
   164    C    4  dxz    Ryd( 5d)     0.00005       3.19406
   165    C    4  dxz    Ryd( 4d)     0.00006       1.51737
   166    C    4  dyz    Ryd( 3d)     0.00009       1.19135
   167    C    4  dyz    Ryd( 5d)     0.00010       3.16782
   168    C    4  dyz    Ryd( 4d)     0.00002       1.47175
   169    C    4  dx2y2  Ryd( 4d)     0.00232       3.23960
   170    C    4  dx2y2  Ryd( 5d)     0.00015       4.20670
   171    C    4  dx2y2  Ryd( 3d)     0.00006       1.93149
   172    C    4  dz2    Ryd( 3d)     0.00112       1.60065
   173    C    4  dz2    Ryd( 5d)     0.00010       4.11205
   174    C    4  dz2    Ryd( 4d)     0.00010       3.91183
   175    C    4  f(0)   Ryd( 4f)     0.00016       1.60611
   176    C    4  f(0)   Ryd( 5f)     0.00011       3.22861
   177    C    4  f(C1)  Ryd( 4f)     0.00062       2.01878
   178    C    4  f(C1)  Ryd( 5f)     0.00012       3.41767
   179    C    4  f(S1)  Ryd( 4f)     0.00075       2.00009
   180    C    4  f(S1)  Ryd( 5f)     0.00017       3.40704
   181    C    4  f(C2)  Ryd( 4f)     0.00010       1.61069
   182    C    4  f(C2)  Ryd( 5f)     0.00003       3.26958
   183    C    4  f(S2)  Ryd( 4f)     0.00036       1.75450
   184    C    4  f(S2)  Ryd( 5f)     0.00009       3.21325
   185    C    4  f(C3)  Ryd( 4f)     0.00081       2.09946
   186    C    4  f(C3)  Ryd( 5f)     0.00027       3.84855
   187    C    4  f(S3)  Ryd( 4f)     0.00058       2.68044
   188    C    4  f(S3)  Ryd( 5f)     0.00015       3.79832
 
   189    C    5  S      Cor( 1S)     1.99905     -10.40041
   190    C    5  S      Val( 2S)     0.94604      -0.20815
   191    C    5  S      Ryd( 4S)     0.00103       1.96071
   192    C    5  S      Ryd( 5S)     0.00003       3.38028
   193    C    5  S      Ryd( 3S)     0.00003       1.91635
   194    C    5  px     Val( 2p)     1.05685      -0.08250
   195    C    5  px     Ryd( 5p)     0.00379       1.73547
   196    C    5  px     Ryd( 4p)     0.00002       1.61783
   197    C    5  px     Ryd( 3p)     0.00002       0.93710
   198    C    5  py     Val( 2p)     1.18414      -0.10970
   199    C    5  py     Ryd( 4p)     0.00548       1.70545
   200    C    5  py     Ryd( 5p)     0.00005       2.18959
   201    C    5  py     Ryd( 3p)     0.00003       1.31108
   202    C    5  pz     Val( 2p)     0.94102      -0.14049
   203    C    5  pz     Ryd( 4p)     0.00041       1.01274
   204    C    5  pz     Ryd( 5p)     0.00003       1.47450
   205    C    5  pz     Ryd( 3p)     0.00001       0.74386
   206    C    5  dxy    Ryd( 5d)     0.00191       3.60790
   207    C    5  dxy    Ryd( 4d)     0.00030       3.37509
   208    C    5  dxy    Ryd( 3d)     0.00006       2.94712
   209    C    5  dxz    Ryd( 3d)     0.00061       1.56454
   210    C    5  dxz    Ryd( 5d)     0.00001       2.56626
   211    C    5  dxz    Ryd( 4d)     0.00003       2.20907
   212    C    5  dyz    Ryd( 3d)     0.00032       1.52207
   213    C    5  dyz    Ryd( 5d)     0.00005       2.63156
   214    C    5  dyz    Ryd( 4d)     0.00001       1.85460
   215    C    5  dx2y2  Ryd( 3d)     0.00181       2.48727
   216    C    5  dx2y2  Ryd( 5d)     0.00019       3.46861
   217    C    5  dx2y2  Ryd( 4d)     0.00005       3.41137
   218    C    5  dz2    Ryd( 3d)     0.00104       1.87498
   219    C    5  dz2    Ryd( 5d)     0.00008       3.98468
   220    C    5  dz2    Ryd( 4d)     0.00008       3.50319
   221    C    5  f(0)   Ryd( 5f)     0.00011       3.39388
   222    C    5  f(0)   Ryd( 4f)     0.00002       2.34636
   223    C    5  f(C1)  Ryd( 5f)     0.00028       3.67840
   224    C    5  f(C1)  Ryd( 4f)     0.00001       2.99052
   225    C    5  f(S1)  Ryd( 5f)     0.00016       3.62871
   226    C    5  f(S1)  Ryd( 4f)     0.00003       2.72584
   227    C    5  f(C2)  Ryd( 5f)     0.00002       3.59404
   228    C    5  f(C2)  Ryd( 4f)     0.00001       2.37534
   229    C    5  f(S2)  Ryd( 5f)     0.00002       3.49217
   230    C    5  f(S2)  Ryd( 4f)     0.00000       2.51443
   231    C    5  f(C3)  Ryd( 4f)     0.00019       4.25795
   232    C    5  f(C3)  Ryd( 5f)     0.00005       4.35689
   233    C    5  f(S3)  Ryd( 4f)     0.00012       4.18680
   234    C    5  f(S3)  Ryd( 5f)     0.00003       5.70225
 
   235    C    6  S      Cor( 1S)     1.99900     -10.39460
   236    C    6  S      Val( 2S)     0.94610      -0.20533
   237    C    6  S      Ryd( 3S)     0.00184       1.89295
   238    C    6  S      Ryd( 5S)     0.00010       2.55915
   239    C    6  S      Ryd( 4S)     0.00002       2.05062
   240    C    6  px     Val( 2p)     1.17092      -0.11152
   241    C    6  px     Ryd( 4p)     0.00620       1.72105
   242    C    6  px     Ryd( 5p)     0.00011       1.90922
   243    C    6  px     Ryd( 3p)     0.00005       1.53603
   244    C    6  py     Val( 2p)     1.09801      -0.10877
   245    C    6  py     Ryd( 5p)     0.00425       1.77102
   246    C    6  py     Ryd( 4p)     0.00009       1.59040
   247    C    6  py     Ryd( 3p)     0.00003       1.50348
   248    C    6  pz     Val( 2p)     0.99918      -0.14316
   249    C    6  pz     Ryd( 3p)     0.00086       0.93065
   250    C    6  pz     Ryd( 5p)     0.00001       1.14109
   251    C    6  pz     Ryd( 4p)     0.00005       1.05265
   252    C    6  dxy    Ryd( 3d)     0.00217       2.46154
   253    C    6  dxy    Ryd( 5d)     0.00026       3.79023
   254    C    6  dxy    Ryd( 4d)     0.00009       2.86844
   255    C    6  dxz    Ryd( 3d)     0.00051       1.29981
   256    C    6  dxz    Ryd( 5d)     0.00005       3.13707
   257    C    6  dxz    Ryd( 4d)     0.00006       1.54750
   258    C    6  dyz    Ryd( 3d)     0.00007       1.21275
   259    C    6  dyz    Ryd( 5d)     0.00008       3.08014
   260    C    6  dyz    Ryd( 4d)     0.00003       1.57052
   261    C    6  dx2y2  Ryd( 4d)     0.00217       2.91037
   262    C    6  dx2y2  Ryd( 5d)     0.00015       4.06216
   263    C    6  dx2y2  Ryd( 3d)     0.00006       2.27191
   264    C    6  dz2    Ryd( 3d)     0.00111       1.60042
   265    C    6  dz2    Ryd( 5d)     0.00010       4.11822
   266    C    6  dz2    Ryd( 4d)     0.00010       3.93279
   267    C    6  f(0)   Ryd( 4f)     0.00016       1.61336
   268    C    6  f(0)   Ryd( 5f)     0.00011       3.22189
   269    C    6  f(C1)  Ryd( 4f)     0.00064       1.98813
   270    C    6  f(C1)  Ryd( 5f)     0.00010       3.39648
   271    C    6  f(S1)  Ryd( 4f)     0.00073       2.03943
   272    C    6  f(S1)  Ryd( 5f)     0.00018       3.41234
   273    C    6  f(C2)  Ryd( 4f)     0.00009       1.62427
   274    C    6  f(C2)  Ryd( 5f)     0.00004       3.26032
   275    C    6  f(S2)  Ryd( 4f)     0.00036       1.75775
   276    C    6  f(S2)  Ryd( 5f)     0.00008       3.21152
   277    C    6  f(C3)  Ryd( 4f)     0.00079       2.10353
   278    C    6  f(C3)  Ryd( 5f)     0.00029       3.83792
   279    C    6  f(S3)  Ryd( 4f)     0.00059       2.67225
   280    C    6  f(S3)  Ryd( 5f)     0.00014       3.78288
 
   281    C    7  S      Cor( 1S)     1.99846     -10.48456
   282    C    7  S      Val( 2S)     0.91409      -0.23335
   283    C    7  S      Ryd( 3S)     0.00115       1.58839
   284    C    7  S      Ryd( 5S)     0.00017       2.84326
   285    C    7  S      Ryd( 4S)     0.00003       2.23843
   286    C    7  px     Val( 2p)     0.95319      -0.14697
   287    C    7  px     Ryd( 4p)     0.00604       1.58469
   288    C    7  px     Ryd( 5p)     0.00027       3.25047
   289    C    7  px     Ryd( 3p)     0.00008       1.27217
   290    C    7  py     Val( 2p)     1.03446      -0.12142
   291    C    7  py     Ryd( 4p)     0.00502       1.56945
   292    C    7  py     Ryd( 5p)     0.00009       3.42572
   293    C    7  py     Ryd( 3p)     0.00010       1.18050
   294    C    7  pz     Val( 2p)     1.00584      -0.17276
   295    C    7  pz     Ryd( 4p)     0.00127       0.79847
   296    C    7  pz     Ryd( 5p)     0.00019       2.06747
   297    C    7  pz     Ryd( 3p)     0.00008       0.71384
   298    C    7  dxy    Ryd( 3d)     0.00073       3.06594
   299    C    7  dxy    Ryd( 4d)     0.00022       3.06847
   300    C    7  dxy    Ryd( 5d)     0.00011       4.48004
   301    C    7  dxz    Ryd( 3d)     0.00123       1.57883
   302    C    7  dxz    Ryd( 4d)     0.00006       2.32465
   303    C    7  dxz    Ryd( 5d)     0.00007       2.52432
   304    C    7  dyz    Ryd( 3d)     0.00074       1.69047
   305    C    7  dyz    Ryd( 4d)     0.00004       2.37781
   306    C    7  dyz    Ryd( 5d)     0.00003       2.67337
   307    C    7  dx2y2  Ryd( 4d)     0.00126       3.25880
   308    C    7  dx2y2  Ryd( 3d)     0.00025       3.17724
   309    C    7  dx2y2  Ryd( 5d)     0.00020       4.21632
   310    C    7  dz2    Ryd( 3d)     0.00098       2.02417
   311    C    7  dz2    Ryd( 4d)     0.00018       3.19489
   312    C    7  dz2    Ryd( 5d)     0.00011       3.97975
   313    C    7  f(0)   Ryd( 4f)     0.00116       1.31897
   314    C    7  f(0)   Ryd( 5f)     0.00008       3.46701
   315    C    7  f(C1)  Ryd( 4f)     0.00119       1.69373
   316    C    7  f(C1)  Ryd( 5f)     0.00020       3.55778
   317    C    7  f(S1)  Ryd( 4f)     0.00089       1.81909
   318    C    7  f(S1)  Ryd( 5f)     0.00021       3.63454
   319    C    7  f(C2)  Ryd( 4f)     0.00093       1.24194
   320    C    7  f(C2)  Ryd( 5f)     0.00004       3.55719
   321    C    7  f(S2)  Ryd( 4f)     0.00058       1.26369
   322    C    7  f(S2)  Ryd( 5f)     0.00008       3.49339
   323    C    7  f(C3)  Ryd( 4f)     0.00212       1.86371
   324    C    7  f(C3)  Ryd( 5f)     0.00036       4.29419
   325    C    7  f(S3)  Ryd( 4f)     0.00136       2.80929
   326    C    7  f(S3)  Ryd( 5f)     0.00009       4.10080
 
   327   Cl    8  S      Cor( 1S)     2.00000    -101.20508
   328   Cl    8  S      Cor( 2S)     1.99975     -11.01008
   329   Cl    8  S      Val( 3S)     1.83181      -1.05451
   330   Cl    8  S      Ryd( 5S)     0.00205       1.71468
   331   Cl    8  S      Ryd( 4S)     0.00013       1.32136
   332   Cl    8  S      Ryd( 6S)     0.00001       5.79509
   333   Cl    8  px     Cor( 2p)     1.99993      -7.53753
   334   Cl    8  px     Val( 3p)     1.31224      -0.30160
   335   Cl    8  px     Ryd( 5p)     0.00176       0.70308
   336   Cl    8  px     Ryd( 4p)     0.00007       0.54689
   337   Cl    8  px     Ryd( 6p)     0.00005       2.88868
   338   Cl    8  py     Cor( 2p)     1.99998      -7.53416
   339   Cl    8  py     Val( 3p)     1.87125      -0.36917
   340   Cl    8  py     Ryd( 4p)     0.00169       0.73444
   341   Cl    8  py     Ryd( 5p)     0.00015       0.81913
   342   Cl    8  py     Ryd( 6p)     0.00002       2.76160
   343   Cl    8  pz     Cor( 2p)     1.99999      -7.53445
   344   Cl    8  pz     Val( 3p)     1.91249      -0.38358
   345   Cl    8  pz     Ryd( 5p)     0.00188       0.64785
   346   Cl    8  pz     Ryd( 4p)     0.00003       0.57693
   347   Cl    8  pz     Ryd( 6p)     0.00001       2.43696
   348   Cl    8  dxy    Ryd( 4d)     0.00202       1.90745
   349   Cl    8  dxy    Ryd( 3d)     0.00014       1.36508
   350   Cl    8  dxy    Ryd( 5d)     0.00004       2.57908
   351   Cl    8  dxz    Ryd( 4d)     0.00105       1.44226
   352   Cl    8  dxz    Ryd( 3d)     0.00019       1.06539
   353   Cl    8  dxz    Ryd( 5d)     0.00002       2.41447
   354   Cl    8  dyz    Ryd( 4d)     0.00036       1.23251
   355   Cl    8  dyz    Ryd( 3d)     0.00005       0.85314
   356   Cl    8  dyz    Ryd( 5d)     0.00003       2.17977
   357   Cl    8  dx2y2  Ryd( 4d)     0.00194       2.23459
   358   Cl    8  dx2y2  Ryd( 3d)     0.00007       1.27016
   359   Cl    8  dx2y2  Ryd( 5d)     0.00003       2.68213
   360   Cl    8  dz2    Ryd( 4d)     0.00114       1.40608
   361   Cl    8  dz2    Ryd( 3d)     0.00013       1.39302
   362   Cl    8  dz2    Ryd( 5d)     0.00002       2.46186
   363   Cl    8  f(0)   Ryd( 4f)     0.00005       1.34558
   364   Cl    8  f(0)   Ryd( 5f)     0.00002       2.84471
   365   Cl    8  f(C1)  Ryd( 4f)     0.00002       1.73327
   366   Cl    8  f(C1)  Ryd( 5f)     0.00007       2.93060
   367   Cl    8  f(S1)  Ryd( 4f)     0.00003       1.46534
   368   Cl    8  f(S1)  Ryd( 5f)     0.00003       2.92786
   369   Cl    8  f(C2)  Ryd( 4f)     0.00009       1.39522
   370   Cl    8  f(C2)  Ryd( 5f)     0.00002       2.82537
   371   Cl    8  f(S2)  Ryd( 4f)     0.00006       1.39746
   372   Cl    8  f(S2)  Ryd( 5f)     0.00003       2.85145
   373   Cl    8  f(C3)  Ryd( 4f)     0.00015       1.60043
   374   Cl    8  f(C3)  Ryd( 5f)     0.00007       3.06015
   375   Cl    8  f(S3)  Ryd( 4f)     0.00012       1.71620
   376   Cl    8  f(S3)  Ryd( 5f)     0.00009       3.03063
 
   377    C    9  S      Cor( 1S)     1.99914     -10.55325
   378    C    9  S      Val( 2S)     0.77561      -0.12112
   379    C    9  S      Ryd( 3S)     0.00444       2.02156
   380    C    9  S      Ryd( 4S)     0.00011       2.03636
   381    C    9  S      Ryd( 5S)     0.00005       2.40076
   382    C    9  px     Val( 2p)     0.72721      -0.04335
   383    C    9  px     Ryd( 4p)     0.01121       1.65093
   384    C    9  px     Ryd( 3p)     0.00010       1.13844
   385    C    9  px     Ryd( 5p)     0.00006       1.94208
   386    C    9  py     Val( 2p)     0.90637      -0.05076
   387    C    9  py     Ryd( 4p)     0.00626       1.64527
   388    C    9  py     Ryd( 3p)     0.00030       1.17356
   389    C    9  py     Ryd( 5p)     0.00003       1.77889
   390    C    9  pz     Val( 2p)     0.76880      -0.13590
   391    C    9  pz     Ryd( 5p)     0.00061       1.17170
   392    C    9  pz     Ryd( 3p)     0.00011       0.55510
   393    C    9  pz     Ryd( 4p)     0.00006       1.13966
   394    C    9  dxy    Ryd( 4d)     0.00052       3.55339
   395    C    9  dxy    Ryd( 3d)     0.00037       2.52276
   396    C    9  dxy    Ryd( 5d)     0.00008       3.72113
   397    C    9  dxz    Ryd( 4d)     0.00149       2.66375
   398    C    9  dxz    Ryd( 3d)     0.00014       1.71241
   399    C    9  dxz    Ryd( 5d)     0.00006       2.67471
   400    C    9  dyz    Ryd( 5d)     0.00095       2.58204
   401    C    9  dyz    Ryd( 3d)     0.00012       1.55137
   402    C    9  dyz    Ryd( 4d)     0.00006       2.55873
   403    C    9  dx2y2  Ryd( 4d)     0.00196       3.40976
   404    C    9  dx2y2  Ryd( 3d)     0.00038       1.90327
   405    C    9  dx2y2  Ryd( 5d)     0.00010       3.84681
   406    C    9  dz2    Ryd( 4d)     0.00037       3.50864
   407    C    9  dz2    Ryd( 3d)     0.00060       2.07875
   408    C    9  dz2    Ryd( 5d)     0.00011       3.79761
   409    C    9  f(0)   Ryd( 4f)     0.00010       1.48437
   410    C    9  f(0)   Ryd( 5f)     0.00012       3.70313
   411    C    9  f(C1)  Ryd( 4f)     0.00039       1.70770
   412    C    9  f(C1)  Ryd( 5f)     0.00008       3.74244
   413    C    9  f(S1)  Ryd( 4f)     0.00029       1.67644
   414    C    9  f(S1)  Ryd( 5f)     0.00017       3.86834
   415    C    9  f(C2)  Ryd( 4f)     0.00063       1.44560
   416    C    9  f(C2)  Ryd( 5f)     0.00001       3.63312
   417    C    9  f(S2)  Ryd( 4f)     0.00078       1.52341
   418    C    9  f(S2)  Ryd( 5f)     0.00003       3.79017
   419    C    9  f(C3)  Ryd( 4f)     0.00207       2.09535
   420    C    9  f(C3)  Ryd( 5f)     0.00006       4.79129
   421    C    9  f(S3)  Ryd( 4f)     0.00050       2.87516
   422    C    9  f(S3)  Ryd( 5f)     0.00007       4.76993
 
   423    O   10  S      Cor( 1S)     1.99979     -19.33081
   424    O   10  S      Val( 2S)     1.71004      -1.00537
   425    O   10  S      Ryd( 4S)     0.00076       2.79701
   426    O   10  S      Ryd( 3S)     0.00017       1.69278
   427    O   10  S      Ryd( 5S)     0.00004      10.21892
   428    O   10  px     Val( 2p)     1.67240      -0.33893
   429    O   10  px     Ryd( 4p)     0.00183       1.55921
   430    O   10  px     Ryd( 3p)     0.00013       0.70130
   431    O   10  px     Ryd( 5p)     0.00008       5.22660
   432    O   10  py     Val( 2p)     1.73429      -0.33897
   433    O   10  py     Ryd( 4p)     0.00125       1.54781
   434    O   10  py     Ryd( 3p)     0.00014       0.83356
   435    O   10  py     Ryd( 5p)     0.00006       4.99688
   436    O   10  pz     Val( 2p)     1.44110      -0.29005
   437    O   10  pz     Ryd( 4p)     0.00067       1.10000
   438    O   10  pz     Ryd( 3p)     0.00003       0.50513
   439    O   10  pz     Ryd( 5p)     0.00002       4.21115
   440    O   10  dxy    Ryd( 3d)     0.00773       2.14153
   441    O   10  dxy    Ryd( 4d)     0.00017       3.91598
   442    O   10  dxy    Ryd( 5d)     0.00002       6.38337
   443    O   10  dxz    Ryd( 3d)     0.00435       1.55966
   444    O   10  dxz    Ryd( 4d)     0.00004       2.13921
   445    O   10  dxz    Ryd( 5d)     0.00002       6.10767
   446    O   10  dyz    Ryd( 3d)     0.00307       1.52003
   447    O   10  dyz    Ryd( 4d)     0.00003       2.04737
   448    O   10  dyz    Ryd( 5d)     0.00001       6.16752
   449    O   10  dx2y2  Ryd( 3d)     0.00644       1.84860
   450    O   10  dx2y2  Ryd( 4d)     0.00013       2.72191
   451    O   10  dx2y2  Ryd( 5d)     0.00004       6.14599
   452    O   10  dz2    Ryd( 3d)     0.00296       1.69515
   453    O   10  dz2    Ryd( 4d)     0.00010       2.83321
   454    O   10  dz2    Ryd( 5d)     0.00001       6.28767
   455    O   10  f(0)   Ryd( 4f)     0.00012       3.25058
   456    O   10  f(0)   Ryd( 5f)     0.00000       5.54585
   457    O   10  f(C1)  Ryd( 4f)     0.00011       3.68898
   458    O   10  f(C1)  Ryd( 5f)     0.00000       5.82040
   459    O   10  f(S1)  Ryd( 4f)     0.00010       3.49625
   460    O   10  f(S1)  Ryd( 5f)     0.00002       5.69853
   461    O   10  f(C2)  Ryd( 4f)     0.00003       3.23139
   462    O   10  f(C2)  Ryd( 5f)     0.00001       5.91768
   463    O   10  f(S2)  Ryd( 4f)     0.00034       3.29659
   464    O   10  f(S2)  Ryd( 5f)     0.00002       5.60801
   465    O   10  f(C3)  Ryd( 4f)     0.00043       3.80517
   466    O   10  f(C3)  Ryd( 5f)     0.00002       5.99709
   467    O   10  f(S3)  Ryd( 4f)     0.00032       4.12727
   468    O   10  f(S3)  Ryd( 5f)     0.00002       6.11513
 
   469    O   11  S      Cor( 1S)     1.99977     -19.45870
   470    O   11  S      Val( 2S)     1.67007      -1.02794
   471    O   11  S      Ryd( 3S)     0.00035       1.47655
   472    O   11  S      Ryd( 4S)     0.00013       2.42198
   473    O   11  S      Ryd( 5S)     0.00001      11.03710
   474    O   11  px     Val( 2p)     1.67232      -0.39645
   475    O   11  px     Ryd( 4p)     0.00133       1.09139
   476    O   11  px     Ryd( 3p)     0.00011       0.56829
   477    O   11  px     Ryd( 5p)     0.00009       5.10584
   478    O   11  py     Val( 2p)     1.49509      -0.36277
   479    O   11  py     Ryd( 4p)     0.00065       1.22396
   480    O   11  py     Ryd( 3p)     0.00011       0.84347
   481    O   11  py     Ryd( 5p)     0.00005       5.34971
   482    O   11  pz     Val( 2p)     1.84209      -0.41057
   483    O   11  pz     Ryd( 4p)     0.00109       0.89602
   484    O   11  pz     Ryd( 3p)     0.00002       0.48721
   485    O   11  pz     Ryd( 5p)     0.00001       4.21921
   486    O   11  dxy    Ryd( 3d)     0.00479       1.95391
   487    O   11  dxy    Ryd( 4d)     0.00017       2.55494
   488    O   11  dxy    Ryd( 5d)     0.00003       6.84240
   489    O   11  dxz    Ryd( 3d)     0.00428       1.44362
   490    O   11  dxz    Ryd( 4d)     0.00002       1.58507
   491    O   11  dxz    Ryd( 5d)     0.00004       6.63988
   492    O   11  dyz    Ryd( 3d)     0.00037       1.27021
   493    O   11  dyz    Ryd( 4d)     0.00005       1.79557
   494    O   11  dyz    Ryd( 5d)     0.00001       6.61444
   495    O   11  dx2y2  Ryd( 3d)     0.00457       1.98678
   496    O   11  dx2y2  Ryd( 4d)     0.00007       2.06819
   497    O   11  dx2y2  Ryd( 5d)     0.00008       7.05987
   498    O   11  dz2    Ryd( 3d)     0.00278       1.59740
   499    O   11  dz2    Ryd( 4d)     0.00015       2.19313
   500    O   11  dz2    Ryd( 5d)     0.00001       6.89881
   501    O   11  f(0)   Ryd( 4f)     0.00050       2.89475
   502    O   11  f(0)   Ryd( 5f)     0.00001       5.92450
   503    O   11  f(C1)  Ryd( 4f)     0.00014       3.65140
   504    O   11  f(C1)  Ryd( 5f)     0.00001       6.18680
   505    O   11  f(S1)  Ryd( 4f)     0.00020       3.42322
   506    O   11  f(S1)  Ryd( 5f)     0.00001       6.23370
   507    O   11  f(C2)  Ryd( 4f)     0.00001       3.03539
   508    O   11  f(C2)  Ryd( 5f)     0.00001       6.21845
   509    O   11  f(S2)  Ryd( 4f)     0.00010       2.97621
   510    O   11  f(S2)  Ryd( 5f)     0.00001       6.00232
   511    O   11  f(C3)  Ryd( 4f)     0.00008       3.72958
   512    O   11  f(C3)  Ryd( 5f)     0.00002       6.39913
   513    O   11  f(S3)  Ryd( 4f)     0.00013       4.69898
   514    O   11  f(S3)  Ryd( 5f)     0.00006       6.61403
 
   515    H   12  S      Val( 1S)     0.76602       0.02298
   516    H   12  S      Ryd( 4S)     0.00047       2.04680
   517    H   12  S      Ryd( 2S)     0.00011       0.84610
   518    H   12  S      Ryd( 3S)     0.00002       1.35735
   519    H   12  px     Ryd( 2p)     0.00107       1.02772
   520    H   12  px     Ryd( 3p)     0.00016       3.77286
   521    H   12  px     Ryd( 4p)     0.00004       4.17302
   522    H   12  py     Ryd( 2p)     0.00047       0.93914
   523    H   12  py     Ryd( 4p)     0.00010       3.88089
   524    H   12  py     Ryd( 3p)     0.00005       3.67150
   525    H   12  pz     Ryd( 2p)     0.00025       0.65894
   526    H   12  pz     Ryd( 4p)     0.00002       3.62710
   527    H   12  pz     Ryd( 3p)     0.00004       2.17527
   528    H   12  dxy    Ryd( 3d)     0.00013       2.20067
   529    H   12  dxy    Ryd( 4d)     0.00003       4.46040
   530    H   12  dxz    Ryd( 3d)     0.00001       1.68319
   531    H   12  dxz    Ryd( 4d)     0.00001       3.86339
   532    H   12  dyz    Ryd( 3d)     0.00001       1.61029
   533    H   12  dyz    Ryd( 4d)     0.00001       3.71800
   534    H   12  dx2y2  Ryd( 3d)     0.00002       1.99910
   535    H   12  dx2y2  Ryd( 4d)     0.00002       4.48230
   536    H   12  dz2    Ryd( 3d)     0.00003       2.11897
   537    H   12  dz2    Ryd( 4d)     0.00001       4.17419
 
   538    H   13  S      Val( 1S)     0.77617       0.01935
   539    H   13  S      Ryd( 4S)     0.00031       2.02520
   540    H   13  S      Ryd( 2S)     0.00016       0.77303
   541    H   13  S      Ryd( 3S)     0.00002       1.22496
   542    H   13  px     Ryd( 2p)     0.00031       1.13822
   543    H   13  px     Ryd( 4p)     0.00004       3.90586
   544    H   13  px     Ryd( 3p)     0.00008       2.04021
   545    H   13  py     Ryd( 2p)     0.00088       1.08613
   546    H   13  py     Ryd( 4p)     0.00012       4.35611
   547    H   13  py     Ryd( 3p)     0.00003       4.02498
   548    H   13  pz     Ryd( 2p)     0.00014       0.89258
   549    H   13  pz     Ryd( 4p)     0.00005       3.62359
   550    H   13  pz     Ryd( 3p)     0.00004       1.62410
   551    H   13  dxy    Ryd( 3d)     0.00002       1.85687
   552    H   13  dxy    Ryd( 4d)     0.00004       4.50739
   553    H   13  dxz    Ryd( 3d)     0.00003       1.47978
   554    H   13  dxz    Ryd( 4d)     0.00000       3.53426
   555    H   13  dyz    Ryd( 3d)     0.00001       1.66497
   556    H   13  dyz    Ryd( 4d)     0.00001       4.03579
   557    H   13  dx2y2  Ryd( 3d)     0.00016       2.05553
   558    H   13  dx2y2  Ryd( 4d)     0.00003       4.39566
   559    H   13  dz2    Ryd( 3d)     0.00001       1.81058
   560    H   13  dz2    Ryd( 4d)     0.00002       3.83783
 
   561    H   14  S      Val( 1S)     0.76397       0.02456
   562    H   14  S      Ryd( 4S)     0.00047       2.05048
   563    H   14  S      Ryd( 2S)     0.00011       0.82808
   564    H   14  S      Ryd( 3S)     0.00002       1.38686
   565    H   14  px     Ryd( 2p)     0.00111       1.04804
   566    H   14  px     Ryd( 3p)     0.00018       3.73674
   567    H   14  px     Ryd( 4p)     0.00004       4.44473
   568    H   14  py     Ryd( 2p)     0.00046       0.90807
   569    H   14  py     Ryd( 4p)     0.00008       3.93805
   570    H   14  py     Ryd( 3p)     0.00005       3.37155
   571    H   14  pz     Ryd( 2p)     0.00025       0.65579
   572    H   14  pz     Ryd( 4p)     0.00002       3.64489
   573    H   14  pz     Ryd( 3p)     0.00004       2.16412
   574    H   14  dxy    Ryd( 3d)     0.00010       2.17292
   575    H   14  dxy    Ryd( 4d)     0.00003       4.49111
   576    H   14  dxz    Ryd( 3d)     0.00001       1.69770
   577    H   14  dxz    Ryd( 4d)     0.00001       3.92780
   578    H   14  dyz    Ryd( 3d)     0.00001       1.57189
   579    H   14  dyz    Ryd( 4d)     0.00001       3.68300
   580    H   14  dx2y2  Ryd( 3d)     0.00005       2.00459
   581    H   14  dx2y2  Ryd( 4d)     0.00002       4.47515
   582    H   14  dz2    Ryd( 3d)     0.00003       2.11666
   583    H   14  dz2    Ryd( 4d)     0.00001       4.18126
 
   584    H   15  S      Val( 1S)     0.48875       0.14354
   585    H   15  S      Ryd( 4S)     0.00112       1.86241
   586    H   15  S      Ryd( 3S)     0.00014       1.14129
   587    H   15  S      Ryd( 2S)     0.00008       0.96673
   588    H   15  px     Ryd( 2p)     0.00024       1.88408
   589    H   15  px     Ryd( 4p)     0.00003       3.21194
   590    H   15  px     Ryd( 3p)     0.00002       2.85092
   591    H   15  py     Ryd( 2p)     0.00027       2.76290
   592    H   15  py     Ryd( 4p)     0.00038       3.88911
   593    H   15  py     Ryd( 3p)     0.00002       3.11630
   594    H   15  pz     Ryd( 2p)     0.00050       1.64160
   595    H   15  pz     Ryd( 4p)     0.00005       2.94462
   596    H   15  pz     Ryd( 3p)     0.00001       2.58004
   597    H   15  dxy    Ryd( 3d)     0.00005       1.30240
   598    H   15  dxy    Ryd( 4d)     0.00001       4.41267
   599    H   15  dxz    Ryd( 3d)     0.00005       1.18877
   600    H   15  dxz    Ryd( 4d)     0.00000       3.82435
   601    H   15  dyz    Ryd( 3d)     0.00007       1.13445
   602    H   15  dyz    Ryd( 4d)     0.00000       4.28205
   603    H   15  dx2y2  Ryd( 3d)     0.00009       1.80772
   604    H   15  dx2y2  Ryd( 4d)     0.00001       4.70109
   605    H   15  dz2    Ryd( 3d)     0.00009       1.65662
   606    H   15  dz2    Ryd( 4d)     0.00000       4.13437

 WARNING:  1 low occupancy (<1.9990e) core orbital  found on  C    1
           1 low occupancy (<1.9990e) core orbital  found on  C    2
           1 low occupancy (<1.9990e) core orbital  found on  C    6
           1 low occupancy (<1.9990e) core orbital  found on  C    7

 WARNING:  Population inversion found on atom  C    1
           Population inversion found on atom  C    2
           Population inversion found on atom Cl    3
           Population inversion found on atom  C    4
           Population inversion found on atom  C    5
           Population inversion found on atom  C    6
           Population inversion found on atom  C    7
           Population inversion found on atom Cl    8
           Population inversion found on atom  C    9
           Population inversion found on atom  O   10
           Population inversion found on atom  O   11
           Population inversion found on atom  H   12
           Population inversion found on atom  H   13
           Population inversion found on atom  H   14
           Population inversion found on atom  H   15


 Summary of Natural Population Analysis:                  
                                                          
                                       Natural Population 
                Natural  -----------------------------------------------
    Atom  No    Charge         Core      Valence    Rydberg      Total
 -----------------------------------------------------------------------
      C    1   -0.28196      1.99860     4.25256    0.03080     6.28196
      C    2    0.05017      1.99847     3.92120    0.03015     5.94983
     Cl    3    0.04613      9.99966     6.93820    0.01602    16.95387
      C    4   -0.23985      1.99900     4.21568    0.02517     6.23985
      C    5   -0.14559      1.99905     4.12805    0.01850     6.14559
      C    6   -0.23811      1.99900     4.21421    0.02490     6.23811
      C    7    0.06396      1.99846     3.90758    0.03000     5.93604
     Cl    8    0.05663      9.99966     6.92779    0.01592    16.94337
      C    9    0.78694      1.99914     3.17798    0.03593     5.21306
      O   10   -0.58947      1.99979     6.55783    0.03184     8.58947
      O   11   -0.70201      1.99977     6.67956    0.02267     8.70201
      H   12    0.23090      0.00000     0.76602    0.00309     0.76910
      H   13    0.22133      0.00000     0.77617    0.00250     0.77867
      H   14    0.23291      0.00000     0.76397    0.00312     0.76709
      H   15    0.50801      0.00000     0.48875    0.00324     0.49199
 =======================================================================
   * Total *    0.00000     37.99059    57.71555    0.29386    96.00000

                                 Natural Population      
 --------------------------------------------------------
   Core                      37.99059 ( 99.9752% of  38)
   Valence                   57.71555 ( 99.5096% of  58)
   Natural Minimal Basis     95.70614 ( 99.6939% of  96)
   Natural Rydberg Basis      0.29386 (  0.3061% of  96)
 --------------------------------------------------------

    Atom  No          Natural Electron Configuration
 ----------------------------------------------------------------------------
      C    1      [core]2S( 0.89)2p( 3.36)4p( 0.01)4f( 0.01)
      C    2      [core]2S( 0.91)2p( 3.01)4p( 0.01)4f( 0.01)
     Cl    3      [core]3S( 1.83)3p( 5.11)4d( 0.01)
      C    4      [core]2S( 0.95)2p( 3.27)4p( 0.01)
      C    5      [core]2S( 0.95)2p( 3.18)4p( 0.01)
      C    6      [core]2S( 0.95)2p( 3.27)4p( 0.01)
      C    7      [core]2S( 0.91)2p( 2.99)4p( 0.01)4f( 0.01)
     Cl    8      [core]3S( 1.83)3p( 5.10)4d( 0.01)
      C    9      [core]2S( 0.78)2p( 2.40)4p( 0.02)
      O   10      [core]2S( 1.71)2p( 4.85)3d( 0.02)
      O   11      [core]2S( 1.67)2p( 5.01)3d( 0.02)
      H   12            1S( 0.77)
      H   13            1S( 0.78)
      H   14            1S( 0.76)
      H   15            1S( 0.49)


 NATURAL BOND ORBITAL ANALYSIS:

                       Occupancies       Lewis Structure    Low   High
           Occ.    -------------------  -----------------   occ   occ
  Cycle   Thresh.   Lewis   Non-Lewis     CR  BD  3C  LP    (L)   (NL)   Dev
 =============================================================================
   1(1)    1.90    91.80150   4.19850     19  17   0  12     8      7    0.43
   2(2)    1.90    91.80150   4.19850     19  17   0  12     8      7    0.43
   3(1)    1.80    92.20393   3.79607     19  16   0  13     3      4    0.43
   4(2)    1.80    92.20393   3.79607     19  16   0  13     3      4    0.43
   5(1)    1.70    92.20393   3.79607     19  16   0  13     3      4    0.43
   6(2)    1.70    92.20393   3.79607     19  16   0  13     3      4    0.43
   7(1)    1.60    94.03749   1.96251     19  19   0  10     0      4    0.42
   8(2)    1.60    94.02161   1.97839     19  19   0  10     0      4    0.43
   9(3)    1.60    93.50181   2.49819     19  18   0  11     1      4    0.42
  10(4)    1.60    94.03749   1.96251     19  19   0  10     0      4    0.42
  11(1)    1.50    93.55120   2.44880     19  18   0  11     0      5    0.72
  12(2)    1.50    93.55120   2.44880     19  18   0  11     0      5    0.72
  13(1)    1.60    94.03749   1.96251     19  19   0  10     0      4    0.42
 -----------------------------------------------------------------------------

 Structure accepted: RESONANCE keyword permits strongly delocalized structure

 WARNING:  1 low occupancy (<1.9990e) core orbital  found on  C    1
           1 low occupancy (<1.9990e) core orbital  found on  C    2
           1 low occupancy (<1.9990e) core orbital  found on  C    7

[...]
 ! D25   D(5,6,7,1)              0.1001         -DE/DX =    0.0                 !
 ! D26   D(5,6,7,8)           -179.8723         -DE/DX =    0.0                 !
 ! D27   D(14,6,7,1)          -179.9133         -DE/DX =    0.0                 !
 ! D28   D(14,6,7,8)             0.1143         -DE/DX =    0.0                 !
 ! D29   D(1,9,11,15)          180.0019         -DE/DX =    0.0                 !
 ! D30   D(10,9,11,15)           0.0036         -DE/DX =    0.0                 !
 --------------------------------------------------------------------------------
 GradGradGradGradGradGradGradGradGradGradGradGradGradGradGradGradGradGrad


 ----------------------------------------------------------------------

 Electric dipole moment (input orientation):
 (Debye = 10**-18 statcoulomb cm , SI units = C m)
                  (au)            (Debye)         (10**-30 SI)
   Tot        0.103908D+01      0.264107D+01      0.880966D+01
   x         -0.224331D-02     -0.570192D-02     -0.190196D-01
   y          0.866275D+00      0.220185D+01      0.734458D+01
   z          0.573797D+00      0.145845D+01      0.486485D+01

 Dipole polarizability, Alpha (input orientation).
 (esu units = cm**3 , SI units = C**2 m**2 J**-1)
 Alpha(0;0):
               (au)            (10**-24 esu)      (10**-40 SI)
   iso        0.114639D+03      0.169877D+02      0.189014D+02
   aniso      0.589102D+02      0.872959D+01      0.971298D+01
   xx         0.110684D+03      0.164016D+02      0.182493D+02
   yx        -0.284978D+02     -0.422294D+01     -0.469866D+01
   yy         0.101069D+03      0.149769D+02      0.166641D+02
   zx         0.857125D+01      0.127013D+01      0.141321D+01
   zy         0.421521D+01      0.624630D+00      0.694994D+00
   zz         0.132163D+03      0.195846D+02      0.217908D+02

 ----------------------------------------------------------------------

 Dipole orientation:
     6          1.98569028          0.05003098          3.58501912
     6          2.88343012         -2.13834086          4.71988357
    17          5.38648852         -3.74074068          3.34584648
     6          1.82003361         -3.06275868          6.92477460
     6         -0.17814028         -1.76855040          8.01515379
     6         -1.10722711          0.42409587          6.92637944
     6         -0.01349591          1.31272114          4.72153827
    17         -1.15867697          4.05646512          3.35001373
     6          3.10170447          0.98789434          1.15299604
     8          2.37614501          0.37826384         -0.89592278
     8          5.01272097          2.59363022          1.56230261
     1          2.55990693         -4.77104929          7.75989855
     1         -1.02111218         -2.47706610          9.73540282
     1         -2.66141929          1.44802550          7.76253893
     1          5.64534477          3.12535647         -0.06974528

 Electric dipole moment (dipole orientation):
 (Debye = 10**-18 statcoulomb cm , SI units = C m)
                  (au)            (Debye)         (10**-30 SI)
   Tot        0.103908D+01      0.264107D+01      0.880966D+01
   x          0.000000D+00      0.000000D+00      0.000000D+00
   y          0.000000D+00      0.000000D+00      0.000000D+00
   z          0.103908D+01      0.264107D+01      0.880966D+01

 Dipole polarizability, Alpha (dipole orientation).
 (esu units = cm**3 , SI units = C**2 m**2 J**-1)
 Alpha(0;0):
               (au)            (10**-24 esu)      (10**-40 SI)
   iso        0.114639D+03      0.169877D+02      0.189014D+02
   aniso      0.589102D+02      0.872959D+01      0.971298D+01
   xx         0.110655D+03      0.163973D+02      0.182445D+02
   yx        -0.229268D+02     -0.339739D+01     -0.378011D+01
   yy         0.118747D+03      0.175965D+02      0.195787D+02
   zx        -0.189987D+02     -0.281531D+01     -0.313246D+01
   zy        -0.159322D+02     -0.236091D+01     -0.262687D+01
   zz         0.114515D+03      0.169693D+02      0.188809D+02

 ----------------------------------------------------------------------
 Unable to Open any file for archive entry.
 1\1\GINC-AE32\Freq\RM062X\Aug-CC-pVTZ\C7H4Cl2O2\DHUANG\04-Mar-2025\0\\
 #N Geom=AllCheck Guess=TCheck SCRF=Check GenChk RM062X/Aug-CC-pVTZ Fre
 q\\18\\0,1\C,1.0467138325,1.59745379,1.0278148294\C,1.5191365065,1.459
 1845688,2.3259234019\Cl,2.844280515,0.386274104,2.6341965001\C,0.95332
 67496,2.1611354104,3.3768529853\C,-0.1045097307,3.0191527604,3.1222317
 657\C,-0.593570504,3.1789855654,1.8356701176\C,-0.0117303842,2.4666159
 308,0.8005804861\Cl,-0.6144817543,2.6626175779,-0.8119832997\C,1.64063
 53268,0.7992597027,-0.0953592518\O,1.258653683,-0.2832619542,-0.425972
 9208\O,2.6524163604,1.4502401333,-0.6819759146\H,1.3428473346,2.030822
 4485,4.3753915934\H,-0.5529899928,3.5705192109,3.936540229\H,-1.416338
 0959,3.8461387968,1.6265075063\H,2.9893762834,0.8859947042,-1.39275564
 8\\Version=ES64L-G16RevC.01\State=1-A\HF=-1340.02544\RMSD=2.953e-09\RM
 SF=1.188e-05\ZeroPoint=0.0968329\Thermal=0.1065593\ETot=-1339.9188806\
 HTot=-1339.9179365\GTot=-1339.9656034\Dipole=-0.0022433,0.8662748,0.57
 37967\DipoleDeriv=-0.2276874,0.1410095,-0.1103169,0.1492137,-0.146887,
 0.0375662,-0.1048821,0.0458282,-0.2949074,0.640197,-0.5041037,0.233376
 1,-0.5263451,0.4054153,-0.1571934,0.1512679,-0.1008073,0.167779,-0.444
 0593,0.3264515,-0.1436179,0.3313991,-0.2873918,0.104533,-0.1142162,0.0
 807441,-0.1261792,-0.2311783,0.1111786,-0.0123998,0.1242748,-0.1952195
 ,0.0234729,0.0559769,-0.0409721,-0.0465824,0.0366039,-0.1073123,0.0354
 489,-0.1063864,-0.003679,0.0101825,0.0360602,0.0111161,0.1137017,-0.07
 19866,-0.0179318,-0.003909,-0.036203,-0.0736127,-0.0376945,-0.0757655,
 0.0214738,-0.3273685,0.2136169,-0.1220407,0.327131,-0.1162237,0.068852
 9,-0.0898808,0.3984953,-0.1626487,0.930937,-0.1661534,0.0731928,-0.225
 4012,0.0686794,-0.068196,0.0787766,-0.2545494,0.1029637,-0.6232925,1.1
 940163,0.386564,-0.5941134,0.4498359,1.3817038,0.23004,-0.5524241,0.29
 34856,1.0968826,-0.5705547,-0.1174862,0.1623159,-0.2477457,-1.0365087,
 -0.2162844,0.0763759,-0.3470759,-0.637449,-0.9366994,-0.3043265,0.4184
 105,-0.2336692,-0.5353368,0.0926517,0.4650188,0.1636392,-0.67912,0.086
 1601,0.0343328,-0.0371522,0.0359414,0.1049054,0.0089134,-0.0288111,0.0
 01607,0.0242846,0.0670424,0.0583415,0.0217336,0.0583144,0.070313,-0.04
 53368,0.021728,-0.0453525,-0.001439,0.0613989,0.0595657,-0.0185009,0.0
 57753,0.0846702,0.0021713,-0.0269605,0.0092976,0.0692572,0.3492837,-0.
 0174352,-0.0530045,-0.0088388,0.2309708,-0.0419177,-0.0473141,-0.03329
 88,0.3334957\Polar=110.6837699,-28.497845,101.0694128,8.5712527,4.2152
 094,132.1634985\Quadrupole=0.4652455,-4.906744,4.4414985,-4.1559405,-4
 .5650068,1.825103\PG=C01 [X(C7H4Cl2O2)]\NImag=0\\0.45931082,-0.2363595
 8,0.39035822,0.03932483,0.06300201,0.65621419,-0.11007524,0.02270865,-
 0.08939198,0.36311580,0.03315927,-0.08601341,0.02830779,-0.19736782,0.
 31274919,-0.03647529,-0.01802368,-0.30199317,0.03043150,0.07985450,0.6
 3931672,-0.01805694,0.01829165,-0.00809055,-0.11399650,0.07261007,-0.0
 2022391,0.15271202,0.01480951,-0.00662349,0.00476265,0.07284035,-0.083
 79490,0.01356519,-0.11398166,0.10527138,-0.02512762,0.01978374,-0.0039
 3853,-0.02060149,0.01377242,-0.04323816,0.03267765,-0.02069155,0.04683
 244,0.04414792,-0.02530528,0.03072460,-0.12297257,0.05524009,0.0294314
 2,-0.02185138,0.02625897,0.01469888,0.46501234,-0.03396373,0.02914545,
 -0.03874658,0.06719968,-0.13726980,-0.06366076,0.02219521,-0.01611957,
 -0.01223003,-0.26665028,0.37231004,-0.01249511,-0.00184709,-0.05350641
 ,0.08886599,-0.11504157,-0.25303745,-0.00530295,0.00494137,0.00717497,
 0.08993670,0.04651596,0.73766745,-0.03476455,0.02072695,-0.03280702,-0
 .01874387,0.03503160,0.06460376,0.00407255,0.00050234,-0.00086989,-0.2
 2888298,0.12805319,-0.06752995,0.46809477,0.02084401,-0.01629274,0.021
 87445,0.02432252,-0.02330239,-0.04453919,0.00149497,0.00335333,-0.0008
 8551,0.14041519,-0.17567998,0.04287382,-0.27551502,0.39656205,-0.03272
 715,0.02199333,-0.03371804,0.01199499,0.00069657,0.06081631,0.00427763
 ,-0.00524462,-0.00296713,-0.00718456,-0.00906676,-0.13844345,0.0285596
 1,0.09079534,0.70919158,-0.01634638,0.02336910,0.01245393,-0.00138415,
 -0.00183629,0.00524695,-0.00195593,0.00075789,-0.00036423,-0.00835939,
 0.00853033,-0.02704746,-0.13093702,0.03605024,-0.10739617,0.50362806,0
 .03189942,-0.02003041,-0.00076295,-0.00179992,-0.00736169,-0.02039229,
 0.00062279,-0.00133206,0.00089791,-0.00040112,0.01338852,0.02539593,0.
 04834034,-0.09695921,0.04165856,-0.30444380,0.40529119,0.05557629,-0.0
 3780397,0.05616542,0.00522928,-0.02044918,-0.08273021,-0.00119717,0.00
 157264,0.00178557,-0.07060864,0.06296168,0.01850571,-0.04709925,-0.010
 35420,-0.31517137,0.07322998,0.04507970,0.66606826,-0.21361842,0.13155
 018,0.00638017,-0.01081445,-0.00095857,-0.08259539,0.00357670,0.001368
 31,0.00147697,-0.04169103,0.03622428,0.02177357,0.04774952,-0.02778815
 ,0.03731803,-0.14070918,0.07178584,0.03657986,0.41713848,0.12018824,-0
 .17006791,-0.01588483,0.01089675,0.01365953,0.07359553,0.00063918,0.00
 363995,-0.00315374,0.03628537,-0.04001615,-0.01978110,-0.03845555,0.03
 055281,-0.04558761,0.08404270,-0.15154618,-0.06350206,-0.25001619,0.35
 862594,-0.04712898,0.02954182,-0.11440941,-0.02541548,0.02415688,0.018
 59280,-0.00160140,-0.00034375,-0.00349134,0.02177442,-0.01980872,-0.00
 976545,-0.01525925,-0.00030767,-0.05953375,0.09620528,-0.11459435,-0.2
 2095679,0.00721262,0.07802368,0.53938990,-0.00815715,0.00552062,-0.029
 14438,0.00059374,0.00438964,0.00283433,-0.00079386,0.00046629,-0.00099
 095,0.00000692,-0.00111372,-0.00118135,0.00154133,0.00291454,0.0001838
 0,0.00593182,0.00019772,0.00342265,-0.04980578,0.01272777,-0.04660234,
 0.05460589,0.00928309,0.00112911,0.01960321,0.00361446,0.00098625,-0.0
 0298410,0.00051706,-0.00027453,0.00074088,-0.00124384,0.00027838,0.000
 85654,0.00389262,0.00128432,-0.00083037,-0.00382893,0.00612605,-0.0125
 6407,0.01264902,-0.03256693,0.01305544,-0.02255410,0.02741367,-0.01192
 026,0.00486215,-0.02158246,-0.00027311,-0.00021996,0.00214533,-0.00086
 834,0.00060936,-0.00066461,-0.00201070,0.00153799,-0.00178805,0.005322
 26,-0.00520350,0.00163348,-0.01655822,0.00464141,-0.04285918,-0.046122
 83,0.01299731,-0.15868905,0.07210521,-0.01988767,0.22281645,-0.1104730
 9,0.04393119,0.03556205,0.01660175,-0.01290223,-0.00500677,-0.00461550
 ,0.00018498,-0.00113670,0.00108863,0.00380558,-0.00501939,-0.00086943,
 -0.00058855,-0.00140442,-0.00021837,0.00525251,-0.00208613,-0.00890880
 ,0.01483350,0.01737082,-0.00158939,-0.00112912,0.00224166,0.48624630,0
 .03763906,-0.10554478,-0.03884348,-0.01192072,0.01159764,-0.00434146,0
 .00183168,-0.00443107,0.00126501,0.00405402,0.00289518,0.00346065,-0.0
 0019684,-0.00072167,0.00096612,0.00378333,0.00268769,0.00039984,0.0136
 3644,-0.01242856,-0.01032576,-0.00192951,-0.00239895,-0.00271343,0.205
 25837,0.89660766,0.03140982,-0.04516020,-0.16529512,0.00516257,-0.0122
 5720,-0.02644166,0.00354313,-0.00242743,-0.00075313,-0.00259710,0.0001
 3047,-0.00200341,-0.00114773,0.00135788,0.00016428,-0.00531339,0.00250
 542,-0.00048719,0.00706861,-0.00261575,0.02309634,-0.00188432,0.001821
 96,-0.00580273,-0.11359483,0.22816851,0.50297775,0.01983401,0.00219727
 ,0.00658654,-0.00279363,0.00413226,0.00070113,0.00082231,-0.00067093,-
 0.00074777,-0.00013580,-0.00086854,0.00064182,-0.00001017,0.00020714,0
 .00041390,0.00057535,-0.00095958,0.00047978,-0.00070318,-0.00093588,-0
 .00250315,-0.00024929,0.00118817,0.00017165,-0.15712802,-0.19466083,-0
 .04630922,0.16114411,-0.01105461,-0.03040907,-0.02542210,0.00734355,-0
 .00675290,0.00242383,-0.00216086,0.00185883,0.00026029,-0.00025120,0.0
 0151971,-0.00199702,-0.00007214,-0.00026051,-0.00027490,0.00137064,0.0
 0020477,0.00019109,-0.00312555,0.00256677,-0.00453656,0.00083724,-0.00
 087481,0.00193856,-0.19145015,-0.66857720,-0.19912495,0.26439938,0.760
 76961,-0.00215927,-0.03873212,0.00156820,0.00251067,-0.00072646,0.0022
 1005,-0.00180967,0.00020090,-0.00106340,0.00079344,0.00087320,-0.00007
 927,0.00023040,-0.00055575,-0.00032956,0.00227160,0.00027560,0.0005216
 4,-0.00364307,-0.00035551,-0.00919224,0.00002289,0.00014617,0.00274453
 ,-0.04418555,-0.19589728,-0.16023207,0.04377839,0.21593091,0.12954201,
 -0.01343556,-0.00907696,0.02115162,-0.00626259,0.00377970,-0.00072138,
 0.00179358,-0.00103135,-0.00037218,0.00122397,-0.00011305,0.00089919,-
 0.00028401,0.00018270,0.00032633,0.00017785,0.00062442,-0.00004473,0.0
 0140385,-0.00096324,0.00227717,-0.00130817,0.00036080,-0.00077935,-0.2
 0248557,-0.08005404,0.08612971,-0.02430316,-0.06803600,0.00938037,0.32
 645377,0.01048826,0.01106715,-0.01219782,0.00227981,-0.00174466,0.0002
 2985,-0.00047599,0.00075155,0.00036423,-0.00066322,-0.00041194,-0.0001
 5185,0.00017298,-0.00001937,-0.00013469,-0.00071757,-0.00040790,-0.000
 27012,-0.00064223,-0.00002196,0.00037339,0.00092453,0.00025675,-0.0000
 0716,-0.06044068,-0.14159608,0.00959297,-0.07508127,-0.05302415,0.0207
 9785,0.05869622,0.39166603,0.03406074,0.00745135,-0.01570813,0.0027852
 9,-0.00202046,0.00153254,-0.00066801,0.00136966,-0.00120583,-0.0006722
 2,-0.00087368,-0.00013243,0.00031958,-0.00014372,-0.00049610,0.0002760
 1,-0.00144809,0.00091255,-0.00200559,0.00143589,-0.00786141,0.00025669
 ,0.00011473,0.00238751,0.09907069,0.02929308,-0.14431241,0.00473475,0.
 01372165,0.03403724,-0.24739997,0.17206873,0.40359782,0.00154445,0.003
 76846,0.00208618,0.00697409,-0.00028385,0.01289697,-0.00059058,-0.0018
 4657,0.00085623,-0.08612116,0.02172269,-0.10025848,-0.00344287,0.00161
 444,-0.02206684,-0.00016507,0.00610532,-0.00072530,-0.00112975,0.00027
 896,0.00064808,-0.00013665,-0.00035151,-0.00003511,0.00091104,-0.00031
 845,0.00029882,-0.00020359,0.00033663,0.00006498,-0.00019146,-0.000011
 84,0.00009452,0.08386470,0.00374886,0.00150256,-0.00332080,-0.00492535
 ,0.00463443,-0.01554562,-0.00201558,-0.00118113,0.00011757,0.02210501,
 -0.04956421,0.03070721,0.00615587,0.00213686,0.01838854,0.00609568,0.0
 0176656,-0.00046587,0.00029252,-0.00125516,-0.00025647,-0.00036182,-0.
 00020257,0.00014454,-0.00053017,0.00098144,-0.00032115,0.00001437,-0.0
 0035473,-0.00008492,0.00025821,-0.00013637,-0.00013322,-0.02853129,0.0
 4357325,0.00190000,-0.00315758,-0.00202263,-0.00992283,0.00417274,-0.0
 1759430,-0.00003413,0.00084066,0.00102932,-0.09801438,0.02874753,-0.30
 824314,-0.00014880,-0.00049846,0.00063761,-0.00081843,-0.00036621,0.00
 192811,0.00074911,-0.00036638,0.00038268,0.00003958,0.00009537,0.00009
 663,-0.00103651,0.00086627,0.00001408,0.00020975,-0.00050838,-0.000177
 93,0.00033152,-0.00010326,-0.00021523,0.10635897,-0.03035312,0.3237990
 8,-0.00091954,-0.00020423,-0.00070070,0.00042151,0.00552291,-0.0017390
 2,-0.00083379,0.00076084,0.00046991,-0.00511503,0.01201893,0.01888989,
 -0.10055940,0.07021750,0.08792502,0.00872130,-0.00566730,-0.00951143,0
 .00308954,0.00300830,-0.00292543,-0.00000606,-0.00018663,-0.00072529,-
 0.00026957,-0.00025660,0.00010834,0.00005540,-0.00009968,-0.00007875,-
 0.00003952,0.00000566,0.00008430,-0.00113281,-0.00263652,0.00026704,0.
 09803065,-0.00020633,-0.00067424,0.00073740,0.00548959,0.00263032,0.00
 033776,0.00060944,-0.00065183,-0.00037054,0.00742060,-0.00514759,-0.01
 545038,0.07020993,-0.12318093,-0.11275947,-0.00104666,0.00607181,0.003
 87710,0.00304305,0.00474029,0.00042610,-0.00001683,0.00002518,0.000334
 30,-0.00029515,-0.00030790,0.00008770,0.00001736,-0.00010283,-0.000113
 08,-0.00007401,0.00004206,0.00007541,-0.00252621,-0.00193792,0.0007356
 4,-0.08022941,0.12065197,-0.00069978,0.00073777,-0.00029083,-0.0018559
 3,0.00044674,0.00160593,-0.00037622,0.00035950,0.00013249,-0.00382609,
 0.00410475,0.00838289,0.08792352,-0.11276367,-0.22188568,0.01321556,-0
 .01565938,-0.01667149,-0.00280890,0.00031690,-0.00317055,0.00013317,-0
 .00037678,-0.00137228,0.00008335,0.00004959,-0.00004335,-0.00000176,0.
 00000401,0.00004660,0.00003146,-0.00000482,0.00000587,0.00080054,0.000
 26707,0.00041329,-0.09297223,0.12177928,0.23194183,0.00215155,0.003142
 52,0.00163064,-0.00001473,-0.00075209,0.00029811,-0.00017409,-0.000301
 57,0.00007137,0.00357126,0.00257926,-0.00234179,-0.00307845,0.00575720
 ,-0.00033379,-0.21905634,0.14833368,-0.04303037,-0.00615171,0.00749343
 ,-0.00452525,-0.00058343,-0.00204000,-0.00004955,0.00010910,0.00016957
 ,-0.00074616,0.00002716,0.00013481,0.00033854,-0.00012377,-0.00001895,
 0.00016312,-0.00017655,0.00026647,0.00009011,-0.00141854,-0.00238168,0
 .00037418,0.22493825,0.00318031,0.00202550,-0.00318834,-0.00078963,-0.
 00034748,-0.00037291,-0.00029992,-0.00025987,0.00011186,0.00261521,0.0
 0476048,-0.00042207,0.00126687,0.00247018,-0.00054511,0.14786130,-0.15
 805134,0.03123050,0.01220215,-0.00606971,0.00437349,-0.00189711,-0.001
 13467,0.00083539,0.00046114,0.00035505,0.00082829,-0.00007659,-0.00026
 195,-0.00020389,0.00008454,-0.00004663,-0.00030658,0.00004152,0.000046
 56,-0.00011163,-0.00226605,-0.00215430,0.00073039,-0.16239178,0.158639
 19,0.00182864,-0.00333331,-0.00315395,0.00018018,-0.00028832,-0.001640
 05,-0.00000908,0.00015240,0.00019137,-0.00223386,-0.00049819,-0.004800
 83,-0.02222112,0.01838954,-0.00005995,-0.04533087,0.03310537,-0.066819
 52,0.01834056,-0.01527635,0.00623342,0.00082475,0.00008616,0.00097630,
 0.00064223,-0.00027849,0.00144276,-0.00015836,-0.00031665,-0.00050211,
 0.00017248,0.00003876,-0.00037231,-0.00101662,0.00084091,-0.00003369,0
 .00091202,0.00026797,0.00091452,0.04807124,-0.03291393,0.06766056,-0.0
 0114188,-0.00426053,0.00423408,-0.00064915,0.00023532,0.00031758,-0.00
 010859,-0.00011741,-0.00004017,0.00007831,0.00038018,0.00016932,0.0001
 1458,-0.00012874,0.00011362,0.00009745,0.00010968,-0.00021481,0.000574
 21,-0.00002336,0.00047289,-0.00004994,-0.00017109,-0.00049802,-0.01839
 909,0.02296455,0.03787176,0.00306850,0.00182796,-0.00751499,-0.0826192
 3,0.06548430,0.10890012,-0.00000378,0.00006372,0.00002900,-0.00002414,
 -0.00001368,-0.00002088,-0.00001971,0.00000804,-0.00000219,0.09908244,
 -0.00365578,0.00042805,0.00007937,0.00010808,0.00032986,-0.00014664,0.
 00012196,-0.00020659,0.00001746,0.00012046,-0.00008851,-0.00006040,-0.
 00011312,0.00005724,-0.00005493,0.00001204,0.00015220,0.00009690,-0.00
 022110,0.00018727,0.00022245,-0.00010526,-0.00004726,0.00013071,-0.006
 39120,0.02088156,0.01741348,0.00109764,-0.00630154,-0.00155560,0.09536
 206,-0.20637450,-0.22060475,0.00000172,-0.00000958,0.00000681,0.000012
 28,-0.00000411,0.00000867,0.00000913,0.00002899,0.00002413,-0.08635892
 ,0.19096694,0.00463316,0.00068579,0.00167087,0.00030035,-0.00040448,0.
 00045532,-0.00031699,0.00033300,0.00017595,-0.00021190,0.00001312,0.00
 006887,0.00012388,-0.00003936,0.00016177,-0.00007055,-0.00033663,-0.00
 019152,0.00027627,0.00015403,-0.00062515,-0.00001972,0.00012253,-0.000
 04188,0.01849950,-0.01206918,-0.02232415,-0.00799745,-0.00228978,0.000
 90630,0.12861776,-0.19059606,-0.27216970,-0.00000293,0.00001533,-0.000
 01388,-0.00000367,0.00003480,-0.00000923,-0.00001040,-0.00004547,-0.00
 003652,-0.14381732,0.20442236,0.29197294\\-0.00000491,0.00001265,0.000
 02853,-0.00002024,0.00001386,-0.00002877,0.00000205,-0.00000608,0.0000
 0145,-0.00000138,-0.00000532,-0.00000339,-0.00000543,0.00000012,-0.000
 01572,0.00000528,0.00000318,0.00002237,0.00002682,-0.00002941,-0.00001
 450,-0.00000550,0.00001002,0.00000508,0.00000940,0.00001642,0.00000306
 ,0.00000929,-0.00000040,-0.00000529,-0.00001465,-0.00001679,0.00000463
 ,0.00000269,0.00000345,-0.00000050,0.00000051,-0.00000142,0.00000148,-
 0.00000267,-0.00000378,-0.00000185,-0.00000126,0.00000348,0.00000341\\
 \@
 The archive entry for this job was punched.


0EVERYBODY IS IGNORANT, ONLY ON DIFFERENT SUBJECTS.
0          WILL ROGERS
 Job cpu time:       0 days 11 hours 27 minutes 27.1 seconds.
 Elapsed time:       0 days  0 hours 34 minutes 22.2 seconds.
 File lengths (MBytes):  RWF=    450 Int=      0 D2E=      0 Chk=     34 Scr=      1
 Normal termination of Gaussian 16 at Tue Mar  4 20:14:46 2025.
