 Entering Gaussian System, Link 0=g16
 Initial command:
 /usr/local/gaussian16c01/g16/l1.exe "/scr/dhuang/Gau-106288.inp" -scrdir="/scr/dhuang/"
 Entering Link 1 = /usr/local/gaussian16c01/g16/l1.exe PID=    106289.
  
 Copyright (c) 1988-2019, Gaussian, Inc.  All Rights Reserved.
  
 This is part of the Gaussian(R) 16 program.  It is based on
 the Gaussian(R) 09 system (copyright 2009, Gaussian, Inc.),
 the Gaussian(R) 03 system (copyright 2003, Gaussian, Inc.),
 the Gaussian(R) 98 system (copyright 1998, Gaussian, Inc.),
 the Gaussian(R) 94 system (copyright 1995, Gaussian, Inc.),
 the Gaussian 92(TM) system (copyright 1992, Gaussian, Inc.),
 the Gaussian 90(TM) system (copyright 1990, Gaussian, Inc.),
 the Gaussian 88(TM) system (copyright 1988, Gaussian, Inc.),
 the Gaussian 86(TM) system (copyright 1986, Carnegie Mellon
 University), and the Gaussian 82(TM) system (copyright 1983,
 Carnegie Mellon University). Gaussian is a federally registered
 trademark of Gaussian, Inc.
  
 This software contains proprietary and confidential information,
 including trade secrets, belonging to Gaussian, Inc.
  
 This software is provided under written license and may be
 used, copied, transmitted, or stored only in accord with that
 written license.
  
 The following legend is applicable only to US Government
 contracts under FAR:
  
                    RESTRICTED RIGHTS LEGEND
  
 Use, reproduction and disclosure by the US Government is
 subject to restrictions as set forth in subparagraphs (a)
 and (c) of the Commercial Computer Software - Restricted
 Rights clause in FAR 52.227-19.
  
 Gaussian, Inc.
 340 Quinnipiac St., Bldg. 40, Wallingford CT 06492
  
  
 ---------------------------------------------------------------
 Warning -- This program may not be used in any manner that
 competes with the business of Gaussian, Inc. or will provide
 assistance to any competitor of Gaussian, Inc.  The licensee
 of this program is prohibited from giving any competitor of
 Gaussian, Inc. access to this program.  By using this program,
 the user acknowledges that Gaussian, Inc. is engaged in the
 business of creating and licensing software in the field of
 computational chemistry and represents and warrants to the
 licensee that it is not a competitor of Gaussian, Inc. and that
 it will not use this program in any manner prohibited above.
 ---------------------------------------------------------------
  

 Cite this work as:
 Gaussian 16, Revision C.01,
 M. J. Frisch, G. W. Trucks, H. B. Schlegel, G. E. Scuseria, 
 M. A. Robb, J. R. Cheeseman, G. Scalmani, V. Barone, 
 G. A. Petersson, H. Nakatsuji, X. Li, M. Caricato, A. V. Marenich, 
 J. Bloino, B. G. Janesko, R. Gomperts, B. Mennucci, H. P. Hratchian, 
 J. V. Ortiz, A. F. Izmaylov, J. L. Sonnenberg, D. Williams-Young, 
 F. Ding, F. Lipparini, F. Egidi, J. Goings, B. Peng, A. Petrone, 
 T. Henderson, D. Ranasinghe, V. G. Zakrzewski, J. Gao, N. Rega, 
 G. Zheng, W. Liang, M. Hada, M. Ehara, K. Toyota, R. Fukuda, 
 J. Hasegawa, M. Ishida, T. Nakajima, Y. Honda, O. Kitao, H. Nakai, 
 T. Vreven, K. Throssell, J. A. Montgomery, Jr., J. E. Peralta, 
 F. Ogliaro, M. J. Bearpark, J. J. Heyd, E. N. Brothers, K. N. Kudin, 
 V. N. Staroverov, T. A. Keith, R. Kobayashi, J. Normand, 
 K. Raghavachari, A. P. Rendell, J. C. Burant, S. S. Iyengar, 
 J. Tomasi, M. Cossi, J. M. Millam, M. Klene, C. Adamo, R. Cammi, 
 J. W. Ochterski, R. L. Martin, K. Morokuma, O. Farkas, 
 J. B. Foresman, and D. J. Fox, Gaussian, Inc., Wallingford CT, 2019.
 
 ******************************************
 Gaussian 16:  ES64L-G16RevC.01  3-Jul-2019
                 4-Mar-2025 
 ******************************************
 %nprocshared=20
 Will use up to   20 processors via shared memory.
 %mem=10000MW
 %chk=19.chk
 ------------------------------------
 # opt freq m062x/aug-cc-pvtz pop=nbo
 ------------------------------------
 1/18=20,19=15,26=3,38=1/1,3;
 2/9=110,12=2,17=6,18=5,40=1/2;
 3/5=16,6=1,7=10,11=2,25=1,30=1,71=1,74=-55/1,2,3;
 4//1;
 5/5=2,38=5/2;
 6/7=2,8=2,9=2,10=2,28=1,40=1/1,7;
 7//1,2,3,16;
 1/18=20,19=15,26=3/3(2);
 2/9=110/2;
 99//99;
 2/9=110/2;
 3/5=16,6=1,7=10,11=2,25=1,30=1,71=1,74=-55/1,2,3;
 4/5=5,16=3,69=1/1;
 5/5=2,38=5/2;
 7//1,2,3,16;
 1/18=20,19=15,26=3/3(-5);
 2/9=110/2;
 6/7=2,8=2,9=2,10=2,19=2,28=1,40=1/1,7;
 99/9=1/99;
 --
 19
 --
 Symbolic Z-matrix:
 Charge =  0 Multiplicity = 1
 C                     1.06956   1.49889   0.98389 
 C                     1.67261   1.58996   2.20534 
 O                     2.82055   0.89209   2.50017 
 C                     3.3652    0.89698   3.79837 
 C                     1.08322   2.35369   3.14668 
 C                    -0.04972   3.02084   2.92008 
 C                    -0.62309   2.91476   1.72003 
 C                    -0.10002   2.1597    0.73331 
 O                    -0.71627   2.10044  -0.49847 
 C                    -1.84091   2.90126  -0.78158 
 C                     1.649     0.7279   -0.0035 
 O                     1.11071   0.49478  -1.07113 
 O                     2.8636    0.1211    0.13 
 H                     4.2603    0.2352    3.78914 
 H                     3.70363   1.9201    4.07538 
 H                     2.63716   0.47756   4.528 
 H                     1.50411   2.46591   4.15781 
 H                    -0.50587   3.64173   3.70986 
 H                    -1.55466   3.48656   1.58934 
 H                    -2.12555   2.71652  -1.842 
 H                    -2.70399   2.60484  -0.14479 
 H                    -1.5888    3.98048  -0.67934 
 H                     3.10598  -0.37528  -0.66256 
 

 GradGradGradGradGradGradGradGradGradGradGradGradGradGradGradGradGradGrad
 Berny optimization.
 Initialization pass.
                           ----------------------------
                           !    Initial Parameters    !
                           ! (Angstroms and Degrees)  !
 --------------------------                            --------------------------
 ! Name  Definition              Value          Derivative Info.                !
 --------------------------------------------------------------------------------
 ! R1    R(1,2)                  1.3653         estimate D2E/DX2                !
 ! R2    R(1,8)                  1.3665         estimate D2E/DX2                !
 ! R3    R(1,11)                 1.3803         estimate D2E/DX2                !
 ! R4    R(2,3)                  1.3754         estimate D2E/DX2                !
 ! R5    R(2,5)                  1.3479         estimate D2E/DX2                !
 ! R6    R(3,4)                  1.4078         estimate D2E/DX2                !
 ! R7    R(4,14)                 1.1132         estimate D2E/DX2                !
 ! R8    R(4,15)                 1.1127         estimate D2E/DX2                !
 ! R9    R(4,16)                 1.1128         estimate D2E/DX2                !
 ! R10   R(5,6)                  1.3342         estimate D2E/DX2                !
 ! R11   R(5,17)                 1.101          estimate D2E/DX2                !
 ! R12   R(6,7)                  1.3342         estimate D2E/DX2                !
 ! R13   R(6,18)                 1.1033         estimate D2E/DX2                !
 ! R14   R(7,8)                  1.3481         estimate D2E/DX2                !
 ! R15   R(7,19)                 1.1008         estimate D2E/DX2                !
 ! R16   R(8,9)                  1.3786         estimate D2E/DX2                !
 ! R17   R(9,10)                 1.4094         estimate D2E/DX2                !
 ! R18   R(10,20)                1.1134         estimate D2E/DX2                !
 ! R19   R(10,21)                1.1128         estimate D2E/DX2                !
 ! R20   R(10,22)                1.113          estimate D2E/DX2                !
 ! R21   R(11,12)                1.2182         estimate D2E/DX2                !
 ! R22   R(11,13)                1.3643         estimate D2E/DX2                !
 ! R23   R(13,23)                0.9661         estimate D2E/DX2                !
 ! A1    A(2,1,8)              120.6541         estimate D2E/DX2                !
 ! A2    A(2,1,11)             119.4617         estimate D2E/DX2                !
 ! A3    A(8,1,11)             119.8841         estimate D2E/DX2                !
 ! A4    A(1,2,3)              121.7762         estimate D2E/DX2                !
 ! A5    A(1,2,5)              118.0            estimate D2E/DX2                !
 ! A6    A(3,2,5)              120.1821         estimate D2E/DX2                !
 ! A7    A(2,3,4)              121.2518         estimate D2E/DX2                !
 ! A8    A(3,4,14)             107.5396         estimate D2E/DX2                !
 ! A9    A(3,4,15)             110.5139         estimate D2E/DX2                !
 ! A10   A(3,4,16)             110.4994         estimate D2E/DX2                !
 ! A11   A(14,4,15)            107.7056         estimate D2E/DX2                !
 ! A12   A(14,4,16)            107.9046         estimate D2E/DX2                !
 ! A13   A(15,4,16)            112.478          estimate D2E/DX2                !
 ! A14   A(2,5,6)              122.4142         estimate D2E/DX2                !
 ! A15   A(2,5,17)             122.1395         estimate D2E/DX2                !
 ! A16   A(6,5,17)             115.4459         estimate D2E/DX2                !
 ! A17   A(5,6,7)              118.551          estimate D2E/DX2                !
 ! A18   A(5,6,18)             120.7233         estimate D2E/DX2                !
 ! A19   A(7,6,18)             120.7247         estimate D2E/DX2                !
 ! A20   A(6,7,8)              122.4203         estimate D2E/DX2                !
 ! A21   A(6,7,19)             115.4135         estimate D2E/DX2                !
 ! A22   A(8,7,19)             122.1662         estimate D2E/DX2                !
 ! A23   A(1,8,7)              117.9516         estimate D2E/DX2                !
 ! A24   A(1,8,9)              121.7112         estimate D2E/DX2                !
 ! A25   A(7,8,9)              120.3061         estimate D2E/DX2                !
 ! A26   A(8,9,10)             120.7812         estimate D2E/DX2                !
 ! A27   A(9,10,20)            107.5202         estimate D2E/DX2                !
 ! A28   A(9,10,21)            110.6472         estimate D2E/DX2                !
 ! A29   A(9,10,22)            110.5955         estimate D2E/DX2                !
 ! A30   A(20,10,21)           107.6108         estimate D2E/DX2                !
 ! A31   A(20,10,22)           107.8353         estimate D2E/DX2                !
 ! A32   A(21,10,22)           112.4219         estimate D2E/DX2                !
 ! A33   A(1,11,12)            123.2537         estimate D2E/DX2                !
 ! A34   A(1,11,13)            123.5174         estimate D2E/DX2                !
 ! A35   A(12,11,13)           113.2067         estimate D2E/DX2                !
 ! A36   A(11,13,23)           111.8156         estimate D2E/DX2                !
 ! D1    D(8,1,2,3)            177.3224         estimate D2E/DX2                !
 ! D2    D(8,1,2,5)             -0.3319         estimate D2E/DX2                !
 ! D3    D(11,1,2,3)            -2.5186         estimate D2E/DX2                !
 ! D4    D(11,1,2,5)           179.8271         estimate D2E/DX2                !
 ! D5    D(2,1,8,7)              0.9632         estimate D2E/DX2                !
 ! D6    D(2,1,8,9)            178.9375         estimate D2E/DX2                !
 ! D7    D(11,1,8,7)          -179.1965         estimate D2E/DX2                !
 ! D8    D(11,1,8,9)            -1.2222         estimate D2E/DX2                !
 ! D9    D(2,1,11,12)          172.7962         estimate D2E/DX2                !
 ! D10   D(2,1,11,13)           -5.3715         estimate D2E/DX2                !
 ! D11   D(8,1,11,12)           -7.046          estimate D2E/DX2                !
 ! D12   D(8,1,11,13)          174.7863         estimate D2E/DX2                !
 ! D13   D(1,2,3,4)           -174.1088         estimate D2E/DX2                !
 ! D14   D(5,2,3,4)              3.4952         estimate D2E/DX2                !
 ! D15   D(1,2,5,6)             -0.4949         estimate D2E/DX2                !
 ! D16   D(1,2,5,17)           179.2839         estimate D2E/DX2                !
 ! D17   D(3,2,5,6)           -178.1881         estimate D2E/DX2                !
 ! D18   D(3,2,5,17)             1.5908         estimate D2E/DX2                !
 ! D19   D(2,3,4,14)           177.908          estimate D2E/DX2                !
 ! D20   D(2,3,4,15)           -64.7819         estimate D2E/DX2                !
 ! D21   D(2,3,4,16)            60.3668         estimate D2E/DX2                !
 ! D22   D(2,5,6,7)              0.6484         estimate D2E/DX2                !
 ! D23   D(2,5,6,18)          -179.7268         estimate D2E/DX2                !
 ! D24   D(17,5,6,7)          -179.1442         estimate D2E/DX2                !
 ! D25   D(17,5,6,18)            0.4806         estimate D2E/DX2                !
 ! D26   D(5,6,7,8)              0.0353         estimate D2E/DX2                !
 ! D27   D(5,6,7,19)          -179.9783         estimate D2E/DX2                !
 ! D28   D(18,6,7,8)          -179.5895         estimate D2E/DX2                !
 ! D29   D(18,6,7,19)            0.397          estimate D2E/DX2                !
 ! D30   D(6,7,8,1)             -0.8228         estimate D2E/DX2                !
 ! D31   D(6,7,8,9)           -178.8267         estimate D2E/DX2                !
 ! D32   D(19,7,8,1)           179.1917         estimate D2E/DX2                !
 ! D33   D(19,7,8,9)             1.1878         estimate D2E/DX2                !
 ! D34   D(1,8,9,10)          -173.1088         estimate D2E/DX2                !
 ! D35   D(7,8,9,10)             4.8185         estimate D2E/DX2                !
 ! D36   D(8,9,10,20)          177.2586         estimate D2E/DX2                !
 ! D37   D(8,9,10,21)          -65.4833         estimate D2E/DX2                !
 ! D38   D(8,9,10,22)           59.7591         estimate D2E/DX2                !
 ! D39   D(1,11,13,23)         180.0            estimate D2E/DX2                !
 ! D40   D(12,11,13,23)          1.6671         estimate D2E/DX2                !
 --------------------------------------------------------------------------------
 Trust Radius=3.00D-01 FncErr=1.00D-07 GrdErr=1.00D-06 EigMax=2.50D+02 EigMin=1.00D-04
 Number of steps in this run=    109 maximum allowed number of steps=    138.
 GradGradGradGradGradGradGradGradGradGradGradGradGradGradGradGradGradGrad

                          Input orientation:                          
 ---------------------------------------------------------------------
 Center     Atomic      Atomic             Coordinates (Angstroms)
 Number     Number       Type             X           Y           Z
 ---------------------------------------------------------------------
      1          6           0        1.069557    1.498892    0.983887
      2          6           0        1.672611    1.589965    2.205337
      3          8           0        2.820546    0.892089    2.500170
      4          6           0        3.365198    0.896977    3.798369
      5          6           0        1.083215    2.353693    3.146682
      6          6           0       -0.049722    3.020838    2.920077
      7          6           0       -0.623089    2.914761    1.720027
      8          6           0       -0.100019    2.159700    0.733312
      9          8           0       -0.716270    2.100438   -0.498474
     10          6           0       -1.840912    2.901256   -0.781579
     11          6           0        1.649000    0.727900   -0.003500
     12          8           0        1.110707    0.494781   -1.071127
     13          8           0        2.863600    0.121100    0.130000
     14          1           0        4.260304    0.235200    3.789140
     15          1           0        3.703628    1.920101    4.075379
     16          1           0        2.637163    0.477558    4.527998
     17          1           0        1.504108    2.465908    4.157808
     18          1           0       -0.505873    3.641726    3.709864
     19          1           0       -1.554662    3.486557    1.589336
     20          1           0       -2.125545    2.716522   -1.842003
     21          1           0       -2.703989    2.604837   -0.144793
     22          1           0       -1.588798    3.980483   -0.679343
     23          1           0        3.105983   -0.375276   -0.662558
 ---------------------------------------------------------------------
                    Distance matrix (angstroms):
                    1          2          3          4          5
     1  C    0.000000
     2  C    1.365250   0.000000
     3  O    2.394428   1.375395   0.000000
     4  C    3.681518   2.425456   1.407832   0.000000
     5  C    2.325630   1.347887   2.360632   2.784630   0.000000
     6  C    2.705168   2.350464   3.598101   4.116292   1.334159
     7  C    2.326293   2.694596   4.069207   4.929239   2.293822
     8  C    1.366515   2.373536   3.641199   4.795496   2.694816
     9  O    2.397589   3.643889   4.791768   6.047277   4.073015
    10  C    3.681620   4.794371   6.044487   7.217800   4.927635
    11  C    1.380260   2.371218   2.769086   4.174701   3.589842
    12  O    2.287579   3.500055   3.979392   5.381123   4.609363
    13  O    2.417855   2.807676   2.492786   3.782924   4.153867
    14  H    4.432519   3.322645   2.041041   1.113215   3.872293
    15  H    4.083267   2.780482   2.077963   1.112678   2.813724
    16  H    4.007647   2.750012   2.077872   1.112792   2.800477
    17  H    3.346300   2.146581   2.637742   2.460569   1.100962
    18  H    3.808499   3.349495   4.482067   4.746227   2.121651
    19  H    3.347223   3.793653   5.167526   5.982539   3.266053
    20  H    4.435872   5.663575   6.829849   8.079159   5.942624
    21  H    4.091049   5.070276   6.360017   7.436420   5.023923
    22  H    3.998935   4.967166   6.252183   7.355269   4.942122
    23  H    3.220298   3.760525   3.419142   4.646040   5.103839
                    6          7          8          9         10
     6  C    0.000000
     7  C    1.334212   0.000000
     8  C    2.350751   1.348082   0.000000
     9  O    3.602487   2.365069   1.378613   0.000000
    10  C    4.113990   2.782321   2.423945   1.409354   0.000000
    11  C    4.085404   3.593786   2.377396   2.779094   4.184300
    12  O    4.863874   4.080796   2.737483   2.498782   3.819295
    13  O    4.967943   4.742334   3.647316   4.138626   5.540097
    14  H    5.204937   5.942121   5.661643   6.828545   8.076147
    15  H    4.078478   5.025685   5.068980   6.363030   7.436036
    16  H    4.033986   4.945090   4.972064   6.256571   7.356567
    17  H    2.062599   3.266376   3.793964   5.171519   5.981323
    18  H    1.103331   2.121713   3.349773   4.486641   4.743805
    19  H    2.062185   1.100844   2.146930   2.642570   2.458812
    20  H    5.203754   3.871012   3.323410   2.042226   1.113392
    21  H    4.075735   2.811361   2.783859   2.080994   1.112772
    22  H    4.030570   2.797379   2.743593   2.080525   1.112989
    23  H    5.858954   5.514258   4.318913   4.556940   5.934779
                   11         12         13         14         15
    11  C    0.000000
    12  O    1.218167   0.000000
    13  O    1.364288   2.157540   0.000000
    14  H    4.630958   5.797373   3.918304   0.000000
    15  H    4.720180   5.936439   4.416794   1.797418   0.000000
    16  H    4.644741   5.803497   4.418227   1.799787   1.850173
    17  H    4.512000   5.601952   4.854851   3.564911   2.267727
    18  H    5.188731   5.947644   6.046783   5.858937   4.562619
    19  H    4.517827   4.809675   5.742560   7.016001   6.023603
    20  H    4.645633   4.000464   5.959579   8.868246   8.344397
    21  H    4.742507   4.456718   6.102664   8.342204   7.703004
    22  H    4.638900   4.426165   5.947581   8.258720   7.406911
    23  H    1.942718   2.214736   0.966068   4.639261   5.298489
                   16         17         18         19         20
    16  H    0.000000
    17  H    2.318274   0.000000
    18  H    4.534311   2.371334   0.000000
    19  H    5.938115   4.122480   2.370796   0.000000
    20  H    8.262765   7.016760   5.856839   3.562717   0.000000
    21  H    7.408657   6.019946   4.556888   2.259555   1.796550
    22  H    7.566084   5.937847   4.533499   2.322075   1.799298
    23  H    5.281003   5.820159   6.949811   6.458048   6.190251
                   21         22         23
    21  H    0.000000
    22  H    1.849809   0.000000
    23  H    6.550186   6.404209   0.000000
 Stoichiometry    C9H10O4
 Framework group  C1[X(C9H10O4)]
 Deg. of freedom    63
 Full point group                 C1      NOp   1
 Largest Abelian subgroup         C1      NOp   1
 Largest concise Abelian subgroup C1      NOp   1
                         Standard orientation:                         
 ---------------------------------------------------------------------
 Center     Atomic      Atomic             Coordinates (Angstroms)
 Number     Number       Type             X           Y           Z
 ---------------------------------------------------------------------
      1          6           0       -0.010913    0.284311    0.002389
      2          6           0        1.149342   -0.434512    0.034140
      3          8           0        2.381073    0.177271    0.017543
      4          6           0        3.568428   -0.573714   -0.073018
      5          6           0        1.060680   -1.779479    0.034189
      6          6           0       -0.110037   -2.419014    0.014298
      7          6           0       -1.230999   -1.696230   -0.019615
      8          6           0       -1.221615   -0.348270   -0.035109
      9          8           0       -2.406956    0.355596   -0.045885
     10          6           0       -3.643398   -0.312328    0.060728
     11          6           0        0.044632    1.663450    0.005038
     12          8           0       -0.934370    2.371699   -0.149464
     13          8           0        1.203064    2.370484    0.144395
     14          1           0        4.418062    0.144775   -0.106819
     15          1           0        3.698067   -1.208772    0.831386
     16          1           0        3.583849   -1.166312   -1.014770
     17          1           0        1.952291   -2.425219    0.047098
     18          1           0       -0.150184   -3.521602    0.019435
     19          1           0       -2.166682   -2.276004   -0.034371
     20          1           0       -4.442531    0.462712    0.079207
     21          1           0       -3.819514   -0.956340   -0.829493
     22          1           0       -3.699377   -0.882506    1.014934
     23          1           0        1.046803    3.323578    0.122453
 ---------------------------------------------------------------------
 Rotational constants (GHZ):           1.2275532           0.7147684           0.4553060
 Standard basis: Aug-CC-pVTZ (5D, 7F)
 There are   965 symmetry adapted cartesian basis functions of A   symmetry.
 There are   828 symmetry adapted basis functions of A   symmetry.
   828 basis functions,  1206 primitive gaussians,   965 cartesian basis functions
    48 alpha electrons       48 beta electrons
       nuclear repulsion energy       820.7896194445 Hartrees.
 NAtoms=   23 NActive=   23 NUniq=   23 SFac= 1.00D+00 NAtFMM=   60 NAOKFM=F Big=F
 Integral buffers will be    131072 words long.
 Raffenetti 2 integral format.
 Two-electron integral symmetry is turned on.
 One-electron integrals computed using PRISM.
 NBasis=   828 RedAO= T EigKep=  1.27D-06  NBF=   828
 NBsUse=   824 1.00D-06 EigRej=  7.58D-07 NBFU=   824
 ExpMin= 2.53D-02 ExpMax= 1.53D+04 ExpMxC= 5.22D+02 IAcc=3 IRadAn=         5 AccDes= 0.00D+00
 Harris functional with IExCor= 1009 and IRadAn=       5 diagonalized for initial guess.
 HarFok:  IExCor= 1009 AccDes= 0.00D+00 IRadAn=         5 IDoV= 1 UseB2=F ITyADJ=14
 ICtDFT=  3500011 ScaDFX=  1.000000  1.000000  1.000000  1.000000
 FoFCou: FMM=F IPFlag=           0 FMFlag=      100000 FMFlg1=           0
         NFxFlg=           0 DoJE=T BraDBF=F KetDBF=T FulRan=T
         wScrn=  0.000000 ICntrl=       500 IOpCl=  0 I1Cent=   200000004 NGrid=           0
         NMat0=    1 NMatS0=      1 NMatT0=    0 NMatD0=    1 NMtDS0=    0 NMtDT0=    0
 Petite list used in FoFCou.
 Requested convergence on RMS density matrix=1.00D-08 within 128 cycles.
 Requested convergence on MAX density matrix=1.00D-06.
 Requested convergence on             energy=1.00D-06.
 No special actions if energy rises.
 SCF Done:  E(RM062X) =  -649.814667603     A.U. after   14 cycles
            NFock= 14  Conv=0.33D-08     -V/T= 2.0042

 **********************************************************************

            Population analysis using the SCF Density.

 **********************************************************************

 Orbital symmetries:
       Occupied  (A) (A) (A) (A) (A) (A) (A) (A) (A) (A) (A) (A)
                 (A) (A) (A) (A) (A) (A) (A) (A) (A) (A) (A) (A)
                 (A) (A) (A) (A) (A) (A) (A) (A) (A) (A) (A) (A)
                 (A) (A) (A) (A) (A) (A) (A) (A) (A) (A) (A) (A)
       Virtual   (A) (A) (A) (A) (A) (A) (A) (A) (A) (A) (A) (A)
                 (A) (A) (A) (A) (A) (A) (A) (A) (A) (A) (A) (A)
                 (A) (A) (A) (A) (A) (A) (A) (A) (A) (A) (A) (A)
                 (A) (A) (A) (A) (A) (A) (A) (A) (A) (A) (A) (A)
                 (A) (A) (A) (A) (A) (A) (A) (A) (A) (A) (A) (A)
                 (A) (A) (A) (A) (A) (A) (A) (A) (A) (A) (A) (A)
                 (A) (A) (A) (A) (A) (A) (A) (A) (A) (A) (A) (A)
                 (A) (A) (A) (A) (A) (A) (A) (A) (A) (A) (A) (A)
                 (A) (A) (A) (A) (A) (A) (A) (A) (A) (A) (A) (A)
                 (A) (A) (A) (A) (A) (A) (A) (A) (A) (A) (A) (A)
                 (A) (A) (A) (A) (A) (A) (A) (A) (A) (A) (A) (A)
                 (A) (A) (A) (A) (A) (A) (A) (A) (A) (A) (A) (A)
                 (A) (A) (A) (A) (A) (A) (A) (A) (A) (A) (A) (A)
                 (A) (A) (A) (A) (A) (A) (A) (A) (A) (A) (A) (A)
                 (A) (A) (A) (A) (A) (A) (A) (A) (A) (A) (A) (A)
                 (A) (A) (A) (A) (A) (A) (A) (A) (A) (A) (A) (A)
                 (A) (A) (A) (A) (A) (A) (A) (A) (A) (A) (A) (A)
                 (A) (A) (A) (A) (A) (A) (A) (A) (A) (A) (A) (A)
                 (A) (A) (A) (A) (A) (A) (A) (A) (A) (A) (A) (A)
                 (A) (A) (A) (A) (A) (A) (A) (A) (A) (A) (A) (A)
                 (A) (A) (A) (A) (A) (A) (A) (A) (A) (A) (A) (A)
                 (A) (A) (A) (A) (A) (A) (A) (A) (A) (A) (A) (A)
                 (A) (A) (A) (A) (A) (A) (A) (A) (A) (A) (A) (A)
                 (A) (A) (A) (A) (A) (A) (A) (A) (A) (A) (A) (A)
                 (A) (A) (A) (A) (A) (A) (A) (A) (A) (A) (A) (A)
                 (A) (A) (A) (A) (A) (A) (A) (A) (A) (A) (A) (A)
                 (A) (A) (A) (A) (A) (A) (A) (A) (A) (A) (A) (A)
                 (A) (A) (A) (A) (A) (A) (A) (A) (A) (A) (A) (A)
                 (A) (A) (A) (A) (A) (A) (A) (A) (A) (A) (A) (A)
                 (A) (A) (A) (A) (A) (A) (A) (A) (A) (A) (A) (A)
                 (A) (A) (A) (A) (A) (A) (A) (A) (A) (A) (A) (A)
                 (A) (A) (A) (A) (A) (A) (A) (A) (A) (A) (A) (A)
                 (A) (A) (A) (A) (A) (A) (A) (A) (A) (A) (A) (A)
                 (A) (A) (A) (A) (A) (A) (A) (A) (A) (A) (A) (A)
                 (A) (A) (A) (A) (A) (A) (A) (A) (A) (A) (A) (A)
                 (A) (A) (A) (A) (A) (A) (A) (A) (A) (A) (A) (A)
                 (A) (A) (A) (A) (A) (A) (A) (A) (A) (A) (A) (A)
                 (A) (A) (A) (A) (A) (A) (A) (A) (A) (A) (A) (A)
                 (A) (A) (A) (A) (A) (A) (A) (A) (A) (A) (A) (A)
                 (A) (A) (A) (A) (A) (A) (A) (A) (A) (A) (A) (A)
                 (A) (A) (A) (A) (A) (A) (A) (A) (A) (A) (A) (A)
                 (A) (A) (A) (A) (A) (A) (A) (A) (A) (A) (A) (A)
                 (A) (A) (A) (A) (A) (A) (A) (A) (A) (A) (A) (A)
                 (A) (A) (A) (A) (A) (A) (A) (A) (A) (A) (A) (A)
                 (A) (A) (A) (A) (A) (A) (A) (A) (A) (A) (A) (A)
                 (A) (A) (A) (A) (A) (A) (A) (A) (A) (A) (A) (A)
                 (A) (A) (A) (A) (A) (A) (A) (A) (A) (A) (A) (A)
                 (A) (A) (A) (A) (A) (A) (A) (A) (A) (A) (A) (A)
                 (A) (A) (A) (A) (A) (A) (A) (A) (A) (A) (A) (A)
                 (A) (A) (A) (A) (A) (A) (A) (A) (A) (A) (A) (A)
                 (A) (A) (A) (A) (A) (A) (A) (A) (A) (A) (A) (A)
                 (A) (A) (A) (A) (A) (A) (A) (A) (A) (A) (A) (A)
                 (A) (A) (A) (A) (A) (A) (A) (A) (A) (A) (A) (A)
                 (A) (A) (A) (A) (A) (A) (A) (A) (A) (A) (A) (A)
                 (A) (A) (A) (A) (A) (A) (A) (A) (A) (A) (A) (A)
                 (A) (A) (A) (A) (A) (A) (A) (A) (A) (A) (A) (A)
                 (A) (A) (A) (A) (A) (A) (A) (A) (A) (A) (A) (A)
                 (A) (A) (A) (A) (A) (A) (A) (A) (A) (A) (A) (A)
                 (A) (A) (A) (A) (A) (A) (A) (A) (A) (A) (A) (A)
                 (A) (A) (A) (A) (A) (A) (A) (A) (A) (A) (A) (A)
                 (A) (A) (A) (A) (A) (A) (A) (A) (A) (A) (A) (A)
                 (A) (A) (A) (A) (A) (A) (A) (A) (A) (A) (A) (A)
                 (A) (A) (A) (A) (A) (A) (A) (A) (A) (A) (A) (A)
                 (A) (A) (A) (A) (A) (A) (A) (A) (A) (A) (A) (A)
                 (A) (A) (A) (A) (A) (A) (A) (A)
 The electronic state is 1-A.
 Alpha  occ. eigenvalues --  -19.66021 -19.65645 -19.63917 -19.58189 -10.65644
 Alpha  occ. eigenvalues --  -10.62103 -10.62009 -10.60290 -10.59802 -10.55413
 Alpha  occ. eigenvalues --  -10.55300 -10.53680 -10.53643  -1.21536  -1.19516
 Alpha  occ. eigenvalues --   -1.19010  -1.10172  -1.00528  -0.90614  -0.87450
 Alpha  occ. eigenvalues --   -0.80566  -0.79936  -0.76141  -0.69231  -0.67650
 Alpha  occ. eigenvalues --   -0.63641  -0.60274  -0.58180  -0.57599  -0.56735
 Alpha  occ. eigenvalues --   -0.55193  -0.54711  -0.54079  -0.51863  -0.51012
 Alpha  occ. eigenvalues --   -0.49322  -0.47133  -0.47040  -0.45509  -0.43734
 Alpha  occ. eigenvalues --   -0.42313  -0.40695  -0.39003  -0.38850  -0.37051
 Alpha  occ. eigenvalues --   -0.32316  -0.31274  -0.29249
 Alpha virt. eigenvalues --   -0.01899  -0.01121  -0.00276   0.00448   0.01157
 Alpha virt. eigenvalues --    0.01402   0.01952   0.02239   0.02599   0.03597
 Alpha virt. eigenvalues --    0.03679   0.04367   0.04701   0.04988   0.06063
 Alpha virt. eigenvalues --    0.06172   0.06829   0.07744   0.07849   0.07967
 Alpha virt. eigenvalues --    0.08219   0.08402   0.08573   0.09018   0.09438
 Alpha virt. eigenvalues --    0.09631   0.10049   0.10092   0.10579   0.11033
 Alpha virt. eigenvalues --    0.11564   0.11879   0.12133   0.12411   0.12590
 Alpha virt. eigenvalues --    0.12626   0.13243   0.13983   0.14503   0.15068
 Alpha virt. eigenvalues --    0.15276   0.15665   0.16474   0.17106   0.17351
 Alpha virt. eigenvalues --    0.17692   0.17889   0.18196   0.18457   0.19453
 Alpha virt. eigenvalues --    0.19540   0.20198   0.20483   0.20958   0.21863
 Alpha virt. eigenvalues --    0.22054   0.22200   0.22591   0.22739   0.23539
 Alpha virt. eigenvalues --    0.23810   0.24210   0.24276   0.24684   0.25207
 Alpha virt. eigenvalues --    0.25694   0.25816   0.25926   0.26734   0.26933
 Alpha virt. eigenvalues --    0.27258   0.27758   0.27833   0.28013   0.28296
 Alpha virt. eigenvalues --    0.29125   0.29442   0.29947   0.30556   0.30883
 Alpha virt. eigenvalues --    0.31020   0.31556   0.31804   0.32375   0.32439
 Alpha virt. eigenvalues --    0.32949   0.33292   0.33713   0.34210   0.34618
 Alpha virt. eigenvalues --    0.34740   0.35583   0.36029   0.36195   0.36468
 Alpha virt. eigenvalues --    0.36506   0.36737   0.37207   0.37445   0.37676
 Alpha virt. eigenvalues --    0.38344   0.38792   0.39017   0.39332   0.39983
 Alpha virt. eigenvalues --    0.40073   0.40447   0.40510   0.40638   0.41003
 Alpha virt. eigenvalues --    0.41934   0.42150   0.42506   0.42872   0.43098
 Alpha virt. eigenvalues --    0.43334   0.43534   0.44269   0.44800   0.44852
 Alpha virt. eigenvalues --    0.45256   0.46094   0.46708   0.46855   0.47622
 Alpha virt. eigenvalues --    0.47822   0.48384   0.48702   0.49261   0.49549
 Alpha virt. eigenvalues --    0.49684   0.49998   0.50420   0.51101   0.51645
 Alpha virt. eigenvalues --    0.51955   0.52957   0.53000   0.54855   0.55331
 Alpha virt. eigenvalues --    0.56005   0.56516   0.56816   0.57178   0.58495
 Alpha virt. eigenvalues --    0.58973   0.59605   0.60616   0.60984   0.61535
 Alpha virt. eigenvalues --    0.61873   0.62186   0.62432   0.64738   0.65151
 Alpha virt. eigenvalues --    0.65335   0.65686   0.66458   0.67544   0.68043
 Alpha virt. eigenvalues --    0.68618   0.68968   0.69315   0.69575   0.70272
 Alpha virt. eigenvalues --    0.70660   0.71226   0.71655   0.72058   0.72475
 Alpha virt. eigenvalues --    0.73102   0.73471   0.73593   0.73948   0.74375
 Alpha virt. eigenvalues --    0.74823   0.75734   0.76124   0.76682   0.77408
 Alpha virt. eigenvalues --    0.77537   0.78084   0.78346   0.79272   0.79466
 Alpha virt. eigenvalues --    0.79984   0.80147   0.80811   0.80942   0.81044
 Alpha virt. eigenvalues --    0.81730   0.81987   0.82158   0.82849   0.83085
 Alpha virt. eigenvalues --    0.83484   0.83609   0.84977   0.85124   0.85180
 Alpha virt. eigenvalues --    0.85422   0.85675   0.86364   0.86805   0.87276
 Alpha virt. eigenvalues --    0.87541   0.88325   0.88805   0.89535   0.89991
 Alpha virt. eigenvalues --    0.90821   0.91341   0.91529   0.92169   0.92508
 Alpha virt. eigenvalues --    0.92879   0.93113   0.93669   0.94311   0.94633
 Alpha virt. eigenvalues --    0.95090   0.95503   0.96069   0.96922   0.97331
 Alpha virt. eigenvalues --    0.97453   0.97888   0.98348   0.99056   0.99185
 Alpha virt. eigenvalues --    0.99780   1.00150   1.00793   1.01350   1.01684
 Alpha virt. eigenvalues --    1.02900   1.03023   1.03347   1.03921   1.04995
 Alpha virt. eigenvalues --    1.05107   1.05876   1.06128   1.06570   1.07184
 Alpha virt. eigenvalues --    1.07935   1.08661   1.08781   1.09085   1.09592
 Alpha virt. eigenvalues --    1.10586   1.11252   1.11484   1.12293   1.12848
 Alpha virt. eigenvalues --    1.13258   1.13649   1.14165   1.14323   1.14683
 Alpha virt. eigenvalues --    1.15023   1.15925   1.16335   1.16853   1.17654
 Alpha virt. eigenvalues --    1.18578   1.19211   1.19822   1.20838   1.21095
 Alpha virt. eigenvalues --    1.22526   1.22619   1.23769   1.23896   1.25072
 Alpha virt. eigenvalues --    1.25416   1.25791   1.27030   1.28380   1.28472
 Alpha virt. eigenvalues --    1.28946   1.29705   1.30417   1.32844   1.33630
 Alpha virt. eigenvalues --    1.33931   1.34769   1.35865   1.36130   1.36651
 Alpha virt. eigenvalues --    1.37602   1.38024   1.38608   1.39661   1.40486
 Alpha virt. eigenvalues --    1.41182   1.42119   1.42247   1.43379   1.44643
 Alpha virt. eigenvalues --    1.44755   1.45124   1.45464   1.46431   1.46544
 Alpha virt. eigenvalues --    1.47268   1.47335   1.48111   1.48579   1.49578
 Alpha virt. eigenvalues --    1.50911   1.51449   1.51933   1.52320   1.52748
 Alpha virt. eigenvalues --    1.52936   1.53234   1.54351   1.55230   1.55688
 Alpha virt. eigenvalues --    1.55820   1.56197   1.56518   1.57306   1.58377
 Alpha virt. eigenvalues --    1.58544   1.59607   1.59717   1.60249   1.61240
 Alpha virt. eigenvalues --    1.62093   1.63220   1.64264   1.64582   1.65102
 Alpha virt. eigenvalues --    1.66016   1.66748   1.67735   1.68247   1.68418
 Alpha virt. eigenvalues --    1.68964   1.69599   1.69791   1.70883   1.71562
 Alpha virt. eigenvalues --    1.72076   1.72501   1.73995   1.74273   1.74668
 Alpha virt. eigenvalues --    1.75213   1.75926   1.76559   1.78469   1.79893
 Alpha virt. eigenvalues --    1.80038   1.80713   1.81558   1.82818   1.83969
 Alpha virt. eigenvalues --    1.84294   1.84408   1.85608   1.85865   1.86490
 Alpha virt. eigenvalues --    1.87734   1.88206   1.89283   1.89955   1.90543
 Alpha virt. eigenvalues --    1.90748   1.91896   1.92430   1.92719   1.93994
 Alpha virt. eigenvalues --    1.95205   1.95917   1.96549   1.96957   1.98354
 Alpha virt. eigenvalues --    1.98435   1.99204   2.00909   2.01666   2.02189
 Alpha virt. eigenvalues --    2.03229   2.03339   2.03669   2.04495   2.04841
 Alpha virt. eigenvalues --    2.05477   2.06562   2.08498   2.08963   2.10744
 Alpha virt. eigenvalues --    2.11209   2.12442   2.13987   2.14704   2.15470
 Alpha virt. eigenvalues --    2.15796   2.16289   2.17571   2.18092   2.19538
 Alpha virt. eigenvalues --    2.20322   2.23565   2.24922   2.27581   2.27768
 Alpha virt. eigenvalues --    2.29695   2.31322   2.32760   2.34131   2.35343
 Alpha virt. eigenvalues --    2.36133   2.36711   2.37614   2.40077   2.40916
 Alpha virt. eigenvalues --    2.41401   2.42692   2.43704   2.44723   2.45188
 Alpha virt. eigenvalues --    2.46343   2.46582   2.48728   2.49807   2.50512
 Alpha virt. eigenvalues --    2.51563   2.52090   2.53226   2.54410   2.55186
 Alpha virt. eigenvalues --    2.57289   2.57941   2.58868   2.60864   2.61033
 Alpha virt. eigenvalues --    2.62672   2.64675   2.65309   2.65782   2.68399
 Alpha virt. eigenvalues --    2.69590   2.70238   2.70996   2.73351   2.73813
 Alpha virt. eigenvalues --    2.75324   2.75855   2.77626   2.80246   2.81509
 Alpha virt. eigenvalues --    2.82319   2.83428   2.86362   2.88052   2.88337
 Alpha virt. eigenvalues --    2.89212   2.90522   2.91037   2.92216   2.93917
 Alpha virt. eigenvalues --    2.95703   2.96528   2.97340   2.98902   3.00576
 Alpha virt. eigenvalues --    3.00741   3.02486   3.04913   3.05872   3.07018
 Alpha virt. eigenvalues --    3.08571   3.09539   3.11129   3.11999   3.12527
 Alpha virt. eigenvalues --    3.13042   3.14836   3.15053   3.15676   3.15877
 Alpha virt. eigenvalues --    3.18194   3.18697   3.19843   3.20704   3.21598
 Alpha virt. eigenvalues --    3.22114   3.22502   3.24497   3.25779   3.26531
 Alpha virt. eigenvalues --    3.27101   3.28147   3.28404   3.29183   3.29990
 Alpha virt. eigenvalues --    3.30583   3.31757   3.33900   3.34443   3.35736
 Alpha virt. eigenvalues --    3.36892   3.37587   3.38502   3.38603   3.39996
 Alpha virt. eigenvalues --    3.41005   3.41662   3.43502   3.43921   3.44602
 Alpha virt. eigenvalues --    3.45833   3.46168   3.46919   3.48706   3.49667
 Alpha virt. eigenvalues --    3.49997   3.50247   3.51329   3.51728   3.52137
 Alpha virt. eigenvalues --    3.52873   3.53532   3.54199   3.55283   3.55550
 Alpha virt. eigenvalues --    3.57210   3.58382   3.58931   3.60614   3.61094
 Alpha virt. eigenvalues --    3.61988   3.63207   3.63584   3.65578   3.66132
 Alpha virt. eigenvalues --    3.66539   3.67440   3.68565   3.69435   3.70318
 Alpha virt. eigenvalues --    3.71922   3.72659   3.73778   3.73965   3.75422
 Alpha virt. eigenvalues --    3.77925   3.79469   3.79673   3.81390   3.82117
 Alpha virt. eigenvalues --    3.83889   3.84261   3.85076   3.85440   3.86301
 Alpha virt. eigenvalues --    3.87247   3.88473   3.89194   3.89534   3.90018
 Alpha virt. eigenvalues --    3.91231   3.91659   3.92754   3.93400   3.94061
 Alpha virt. eigenvalues --    3.94825   3.95743   3.97021   3.97421   3.98470
 Alpha virt. eigenvalues --    3.99412   4.00454   4.01567   4.02683   4.03100
 Alpha virt. eigenvalues --    4.03879   4.04132   4.05668   4.06713   4.07457
 Alpha virt. eigenvalues --    4.07638   4.09239   4.10779   4.12549   4.14120
 Alpha virt. eigenvalues --    4.16309   4.17264   4.18415   4.18603   4.20195
 Alpha virt. eigenvalues --    4.21221   4.21755   4.22650   4.23674   4.25130
 Alpha virt. eigenvalues --    4.26829   4.27306   4.27509   4.28976   4.29821
 Alpha virt. eigenvalues --    4.30538   4.31508   4.32816   4.34496   4.38035
 Alpha virt. eigenvalues --    4.38307   4.38832   4.40306   4.41572   4.42935
 Alpha virt. eigenvalues --    4.43817   4.44011   4.44916   4.46374   4.46791
 Alpha virt. eigenvalues --    4.47826   4.48256   4.48900   4.50919   4.52692
 Alpha virt. eigenvalues --    4.53210   4.55163   4.56465   4.59310   4.60660
 Alpha virt. eigenvalues --    4.62242   4.63154   4.63865   4.64892   4.65631
 Alpha virt. eigenvalues --    4.67643   4.68573   4.69378   4.71086   4.71127
 Alpha virt. eigenvalues --    4.72160   4.73102   4.74472   4.74915   4.75638
 Alpha virt. eigenvalues --    4.77732   4.78836   4.80180   4.81573   4.81830
 Alpha virt. eigenvalues --    4.83614   4.86300   4.87447   4.90146   4.91533
 Alpha virt. eigenvalues --    4.94254   4.95467   4.96612   4.98050   4.99887
 Alpha virt. eigenvalues --    5.00197   5.04141   5.04747   5.05773   5.06726
 Alpha virt. eigenvalues --    5.09653   5.11763   5.12865   5.13195   5.15484
 Alpha virt. eigenvalues --    5.16127   5.16371   5.18793   5.25085   5.25661
 Alpha virt. eigenvalues --    5.26193   5.27752   5.28092   5.30858   5.33381
 Alpha virt. eigenvalues --    5.34231   5.37701   5.41457   5.44302   5.50783
 Alpha virt. eigenvalues --    5.55442   5.57263   5.57704   5.61064   5.62578
 Alpha virt. eigenvalues --    5.65361   5.67785   5.70461   5.73323   5.78375
 Alpha virt. eigenvalues --    5.85539   5.86428   5.91580   5.94169   5.97796
 Alpha virt. eigenvalues --    6.07069   6.11483   6.13255   6.20513   6.21244
 Alpha virt. eigenvalues --    6.23172   6.24939   6.29999   6.30796   6.33101
 Alpha virt. eigenvalues --    6.34152   6.36442   6.37789   6.39454   6.40871
 Alpha virt. eigenvalues --    6.46140   6.47718   6.49980   6.52507   6.53909
 Alpha virt. eigenvalues --    6.58347   6.62808   6.64153   6.66038   6.68814
 Alpha virt. eigenvalues --    6.69369   6.71018   6.75606   6.75835   6.78015
 Alpha virt. eigenvalues --    6.78929   6.83819   6.86528   6.87449   6.89447
 Alpha virt. eigenvalues --    6.91679   6.96842   7.03753   7.05324   7.06088
 Alpha virt. eigenvalues --    7.07565   7.08584   7.10923   7.14459   7.17936
 Alpha virt. eigenvalues --    7.20014   7.24948   7.29191   7.33479   7.37439
 Alpha virt. eigenvalues --    7.37917   7.39288   7.40627   7.42222   7.48412
 Alpha virt. eigenvalues --    7.57414   7.73014   7.88248   7.90845   7.94710
 Alpha virt. eigenvalues --    7.99054   8.09011   8.19972  15.06628  15.54809
 Alpha virt. eigenvalues --   15.62205  16.28085  16.96022  17.15540  17.70872
 Alpha virt. eigenvalues --   17.84083  18.95383  19.80088  20.37495  20.54424
 Alpha virt. eigenvalues --   20.69880
          Condensed to atoms (all electrons):
               1          2          3          4          5          6
     1  C    8.598680  -0.943855  -0.236218  -0.060114  -0.319152  -0.129701
     2  C   -0.943855   7.973681   0.047893  -0.039265   0.163987  -0.291817
     3  O   -0.236218   0.047893   9.389704   0.140319  -0.534323   0.039965
     4  C   -0.060114  -0.039265   0.140319   6.106423   0.018166  -0.042104
     5  C   -0.319152   0.163987  -0.534323   0.018166   7.431978  -0.309323
     6  C   -0.129701  -0.291817   0.039965  -0.042104  -0.309323   8.152835
     7  C   -0.314124  -0.259797  -0.044204  -0.008869  -0.119503  -0.445295
     8  C   -1.181896  -0.480140   0.257643   0.039341  -0.225376  -0.286313
     9  O   -0.291318   0.228920  -0.004842   0.000046  -0.043193   0.037113
    10  C   -0.076831   0.018569   0.000853  -0.000162  -0.010005  -0.040820
    11  C   -0.659493  -0.449551  -0.181681  -0.064743  -0.051519   0.228947
    12  O   -0.224208  -0.023504   0.025114   0.009982   0.004677  -0.008200
    13  O   -0.059955   0.014059  -0.125807   0.012778  -0.017849   0.004670
    14  H   -0.039589   0.024285  -0.081952   0.406159   0.031130  -0.007819
    15  H    0.020902  -0.029173   0.009118   0.343673  -0.032033   0.010045
    16  H    0.017916  -0.011383   0.016138   0.327354  -0.025161   0.006712
    17  H    0.037166  -0.534437  -0.105786  -0.113312   0.401403  -0.574239
    18  H   -0.030752   0.031799  -0.006899   0.001803  -0.181561   0.272774
    19  H   -0.004162  -0.029680   0.001570   0.001340   0.121218  -0.544080
    20  H   -0.042736   0.006792  -0.000079   0.000041  -0.000669  -0.008517
    21  H    0.034630  -0.007336   0.000542  -0.000078  -0.001112   0.012413
    22  H    0.035508  -0.004078   0.000404   0.000056   0.001283   0.011602
    23  H   -0.048324   0.009591  -0.000347  -0.005628  -0.002143   0.000785
               7          8          9         10         11         12
     1  C   -0.314124  -1.181896  -0.291318  -0.076831  -0.659493  -0.224208
     2  C   -0.259797  -0.480140   0.228920   0.018569  -0.449551  -0.023504
     3  O   -0.044204   0.257643  -0.004842   0.000853  -0.181681   0.025114
     4  C   -0.008869   0.039341   0.000046  -0.000162  -0.064743   0.009982
     5  C   -0.119503  -0.225376  -0.043193  -0.010005  -0.051519   0.004677
     6  C   -0.445295  -0.286313   0.037113  -0.040820   0.228947  -0.008200
     7  C    7.506937   0.192655  -0.482795   0.026226  -0.035603  -0.022107
     8  C    0.192655   8.104829   0.036823  -0.068000  -0.509482   0.203218
     9  O   -0.482795   0.036823   9.303375   0.144811  -0.043863  -0.063598
    10  C    0.026226  -0.068000   0.144811   6.126658  -0.021633   0.024159
    11  C   -0.035603  -0.509482  -0.043863  -0.021633   7.479794  -0.181197
    12  O   -0.022107   0.203218  -0.063598   0.024159  -0.181197   9.457486
    13  O    0.002862  -0.037229   0.019855   0.005412   0.084060  -0.217170
    14  H   -0.000435   0.007201  -0.000109   0.000046  -0.002700  -0.000332
    15  H   -0.001334  -0.002546   0.000550  -0.000050  -0.002981   0.000356
    16  H    0.001899  -0.001056   0.000380   0.000049  -0.003356   0.000755
    17  H    0.109591  -0.044726   0.003592   0.002284   0.016528  -0.001162
    18  H   -0.107294   0.008751  -0.002137  -0.001759  -0.009598  -0.000267
    19  H    0.355929  -0.437893  -0.118515  -0.100284  -0.002175   0.000376
    20  H    0.029804   0.018223  -0.077767   0.412536  -0.002836  -0.004585
    21  H   -0.032115  -0.035449   0.016307   0.332878   0.000107   0.000872
    22  H   -0.033378  -0.026114   0.032212   0.309832  -0.000965   0.000316
    23  H    0.000428  -0.017971  -0.003343  -0.000683   0.133262  -0.106627
              13         14         15         16         17         18
     1  C   -0.059955  -0.039589   0.020902   0.017916   0.037166  -0.030752
     2  C    0.014059   0.024285  -0.029173  -0.011383  -0.534437   0.031799
     3  O   -0.125807  -0.081952   0.009118   0.016138  -0.105786  -0.006899
     4  C    0.012778   0.406159   0.343673   0.327354  -0.113312   0.001803
     5  C   -0.017849   0.031130  -0.032033  -0.025161   0.401403  -0.181561
     6  C    0.004670  -0.007819   0.010045   0.006712  -0.574239   0.272774
     7  C    0.002862  -0.000435  -0.001334   0.001899   0.109591  -0.107294
     8  C   -0.037229   0.007201  -0.002546  -0.001056  -0.044726   0.008751
     9  O    0.019855  -0.000109   0.000550   0.000380   0.003592  -0.002137
    10  C    0.005412   0.000046  -0.000050   0.000049   0.002284  -0.001759
    11  C    0.084060  -0.002700  -0.002981  -0.003356   0.016528  -0.009598
    12  O   -0.217170  -0.000332   0.000356   0.000755  -0.001162  -0.000267
    13  O    8.626158  -0.007068   0.000372  -0.000128   0.001921  -0.000301
    14  H   -0.007068   0.479365  -0.028202  -0.037882   0.012260  -0.000074
    15  H    0.000372  -0.028202   0.358285   0.021970  -0.050896  -0.001028
    16  H   -0.000128  -0.037882   0.021970   0.357759  -0.048038  -0.000868
    17  H    0.001921   0.012260  -0.050896  -0.048038   2.042964   0.024451
    18  H   -0.000301  -0.000074  -0.001028  -0.000868   0.024451   0.800158
    19  H   -0.000798   0.000123  -0.000063   0.000313  -0.063228   0.032462
    20  H   -0.000221  -0.000014   0.000009   0.000028   0.000159  -0.000223
    21  H    0.000150   0.000013   0.000024  -0.000092   0.000025  -0.001541
    22  H    0.000338   0.000028  -0.000078   0.000038   0.000140  -0.000863
    23  H    0.176588   0.000071   0.000022  -0.000066  -0.000098  -0.000007
              19         20         21         22         23
     1  C   -0.004162  -0.042736   0.034630   0.035508  -0.048324
     2  C   -0.029680   0.006792  -0.007336  -0.004078   0.009591
     3  O    0.001570  -0.000079   0.000542   0.000404  -0.000347
     4  C    0.001340   0.000041  -0.000078   0.000056  -0.005628
     5  C    0.121218  -0.000669  -0.001112   0.001283  -0.002143
     6  C   -0.544080  -0.008517   0.012413   0.011602   0.000785
     7  C    0.355929   0.029804  -0.032115  -0.033378   0.000428
     8  C   -0.437893   0.018223  -0.035449  -0.026114  -0.017971
     9  O   -0.118515  -0.077767   0.016307   0.032212  -0.003343
    10  C   -0.100284   0.412536   0.332878   0.309832  -0.000683
    11  C   -0.002175  -0.002836   0.000107  -0.000965   0.133262
    12  O    0.000376  -0.004585   0.000872   0.000316  -0.106627
    13  O   -0.000798  -0.000221   0.000150   0.000338   0.176588
    14  H    0.000123  -0.000014   0.000013   0.000028   0.000071
    15  H   -0.000063   0.000009   0.000024  -0.000078   0.000022
    16  H    0.000313   0.000028  -0.000092   0.000038  -0.000066
    17  H   -0.063228   0.000159   0.000025   0.000140  -0.000098
    18  H    0.032462  -0.000223  -0.001541  -0.000863  -0.000007
    19  H    1.963162   0.013550  -0.054636  -0.049395  -0.000170
    20  H    0.013550   0.506260  -0.041136  -0.054068  -0.000034
    21  H   -0.054636  -0.041136   0.368717   0.028486   0.000029
    22  H   -0.049395  -0.054068   0.028486   0.368188   0.000043
    23  H   -0.000170  -0.000034   0.000029   0.000043   0.589846
 Mulliken charges:
               1
     1  C    1.917627
     2  C    0.584439
     3  O   -0.607124
     4  C   -1.073206
     5  C   -0.300919
     6  C   -0.089633
     7  C   -0.319479
     8  C    0.485507
     9  O   -0.692504
    10  C   -1.084086
    11  C    0.280677
    12  O   -0.874352
    13  O   -0.482696
    14  H    0.245494
    15  H    0.383059
    16  H    0.376720
    17  H   -0.116561
    18  H    0.172971
    19  H   -0.084964
    20  H    0.245483
    21  H    0.378302
    22  H    0.380465
    23  H    0.274779
 Sum of Mulliken charges =   0.00000
 Mulliken charges with hydrogens summed into heavy atoms:
               1
     1  C    1.917627
     2  C    0.584439
     3  O   -0.607124
     4  C   -0.067933
     5  C   -0.417479
     6  C    0.083338
     7  C   -0.404443
     8  C    0.485507
     9  O   -0.692504
    10  C   -0.079835
    11  C    0.280677
    12  O   -0.874352
    13  O   -0.207917
 Electronic spatial extent (au):  <R**2>=           2406.1104
 Charge=              0.0000 electrons
 Dipole moment (field-independent basis, Debye):
    X=              1.0438    Y=             -3.9966    Z=              0.2191  Tot=              4.1364
 Quadrupole moment (field-independent basis, Debye-Ang):
   XX=            -61.2143   YY=            -71.6983   ZZ=            -77.0240
   XY=              4.4313   XZ=             -1.2166   YZ=              0.8107
 Traceless Quadrupole moment (field-independent basis, Debye-Ang):
   XX=              8.7646   YY=             -1.7194   ZZ=             -7.0451
   XY=              4.4313   XZ=             -1.2166   YZ=              0.8107
 Octapole moment (field-independent basis, Debye-Ang**2):
  XXX=             -2.2159  YYY=             18.7824  ZZZ=             -0.2233  XYY=             19.6743
  XXY=            -14.3076  XXZ=             -0.1817  XZZ=              0.5201  YZZ=              9.5515
  YYZ=              2.7308  XYZ=             -1.6767
 Hexadecapole moment (field-independent basis, Debye-Ang**3):
 XXXX=          -1614.7979 YYYY=           -935.8233 ZZZZ=            -95.2836 XXXY=             -8.5443
 XXXZ=             -6.0038 YYYX=             75.0194 YYYZ=              9.2595 ZZZX=              0.0601
 ZZZY=              0.3531 XXYY=           -503.7084 XXZZ=           -338.1091 YYZZ=           -208.9584
 XXYZ=              0.8638 YYXZ=             -0.7446 ZZXY=             -0.0877
 N-N= 8.207896194445D+02 E-N=-3.161847497363D+03  KE= 6.470787205759D+02
 ******************************Gaussian NBO Version 3.1******************************
             N A T U R A L   A T O M I C   O R B I T A L   A N D
          N A T U R A L   B O N D   O R B I T A L   A N A L Y S I S
 ******************************Gaussian NBO Version 3.1******************************
       /RESON  / : Allow strongly delocalized NBO set

 Analyzing the SCF density

 Job title: 19                                                              

 Storage needed:   2060184 in NPA,   2745395 in NBO (********** available)
 GSVD:  LWork=       10470 too small for GESVD, short by     1334547 words or     1334547 for optimal perf.
 Remove ICRem=  238 ICRemI=  239 L=1 PNAO number  246 atom    6 type 153 NPNAO=  828
   due to symmetric orthogonalization 2, value= 0.00D+00.
 Remove ICRem=  238 ICRemI=  239 L=1 PNAO number  242 atom    6 type 152 NPNAO=  827
   due to symmetric orthogonalization 2, value= 0.00D+00.
 Remove ICRem=  238 ICRemI=  239 L=1 PNAO number  238 atom    6 type 151 NPNAO=  826
   due to symmetric orthogonalization 2, value= 0.00D+00.
 GSVD:  LWork=       17424 too small for GESVD, short by     1313712 words or     1313712 for optimal perf.

 Computed number of electrons   95.99997724 does not match expected value of    96.


 NATURAL POPULATIONS:  Natural atomic orbital occupancies 
                                                          
   NAO  Atom  No  lang   Type(AO)    Occupancy      Energy
 ----------------------------------------------------------
     1    C    1  S      Cor( 1S)     1.99870     -10.38040
     2    C    1  S      Val( 2S)     0.89119      -0.12484
     3    C    1  S      Ryd( 3S)     0.00098       1.96438
     4    C    1  S      Ryd( 4S)     0.00008       2.41330
     5    C    1  S      Ryd( 5S)     0.00004       4.04142
     6    C    1  px     Val( 2p)     1.12260      -0.11084
     7    C    1  px     Ryd( 4p)     0.00496       2.36724
     8    C    1  px     Ryd( 5p)     0.00014       3.24249
     9    C    1  px     Ryd( 3p)     0.00004       1.31507
    10    C    1  py     Val( 2p)     1.10728      -0.11478
    11    C    1  py     Ryd( 4p)     0.00549       2.56145
    12    C    1  py     Ryd( 5p)     0.00014       2.69813
    13    C    1  py     Ryd( 3p)     0.00009       1.50139
    14    C    1  pz     Val( 2p)     1.14931      -0.14100
    15    C    1  pz     Ryd( 4p)     0.00153       1.04085
    16    C    1  pz     Ryd( 5p)     0.00028       2.13469
    17    C    1  pz     Ryd( 3p)     0.00010       0.74409
    18    C    1  dxy    Ryd( 3d)     0.00115       2.54051
    19    C    1  dxy    Ryd( 4d)     0.00039       4.11503
    20    C    1  dxy    Ryd( 5d)     0.00005       5.54515
    21    C    1  dxz    Ryd( 3d)     0.00042       1.32155
    22    C    1  dxz    Ryd( 5d)     0.00013       3.33643
    23    C    1  dxz    Ryd( 4d)     0.00001       2.68481
    24    C    1  dyz    Ryd( 3d)     0.00013       1.32215
    25    C    1  dyz    Ryd( 5d)     0.00008       3.33770
    26    C    1  dyz    Ryd( 4d)     0.00007       2.57786
    27    C    1  dx2y2  Ryd( 3d)     0.00146       3.02391
    28    C    1  dx2y2  Ryd( 4d)     0.00033       4.23360
    29    C    1  dx2y2  Ryd( 5d)     0.00005       5.52641
    30    C    1  dz2    Ryd( 3d)     0.00142       1.23579
    31    C    1  dz2    Ryd( 4d)     0.00030       3.87135
    32    C    1  dz2    Ryd( 5d)     0.00007       4.54006
    33    C    1  f(0)   Ryd( 4f)     0.00083       1.76158
    34    C    1  f(0)   Ryd( 5f)     0.00031       3.44175
    35    C    1  f(C1)  Ryd( 4f)     0.00072       2.28001
    36    C    1  f(C1)  Ryd( 5f)     0.00023       3.73586
    37    C    1  f(S1)  Ryd( 4f)     0.00051       2.17216
    38    C    1  f(S1)  Ryd( 5f)     0.00041       3.66935
    39    C    1  f(C2)  Ryd( 4f)     0.00051       1.65309
    40    C    1  f(C2)  Ryd( 5f)     0.00005       3.42805
    41    C    1  f(S2)  Ryd( 4f)     0.00048       1.63960
    42    C    1  f(S2)  Ryd( 5f)     0.00004       3.43448
    43    C    1  f(C3)  Ryd( 4f)     0.00159       2.65213
    44    C    1  f(C3)  Ryd( 5f)     0.00032       4.43192
    45    C    1  f(S3)  Ryd( 4f)     0.00127       3.68096
    46    C    1  f(S3)  Ryd( 5f)     0.00007       4.93704
 
    47    C    2  S      Cor( 1S)     1.99861     -10.46708
    48    C    2  S      Val( 2S)     0.81933      -0.11550
    49    C    2  S      Ryd( 3S)     0.00140       2.13890
    50    C    2  S      Ryd( 4S)     0.00015       2.27383
    51    C    2  S      Ryd( 5S)     0.00002       2.28775
    52    C    2  px     Val( 2p)     0.82712      -0.03406
    53    C    2  px     Ryd( 4p)     0.00391       1.82596
    54    C    2  px     Ryd( 5p)     0.00008       2.11639
    55    C    2  px     Ryd( 3p)     0.00006       1.78677
    56    C    2  py     Val( 2p)     1.00337      -0.06534
    57    C    2  py     Ryd( 4p)     0.00492       1.95746
    58    C    2  py     Ryd( 5p)     0.00015       1.98938
    59    C    2  py     Ryd( 3p)     0.00005       1.89085
    60    C    2  pz     Val( 2p)     0.93081      -0.12872
    61    C    2  pz     Ryd( 4p)     0.00067       1.02080
    62    C    2  pz     Ryd( 5p)     0.00019       1.33972
    63    C    2  pz     Ryd( 3p)     0.00010       1.01548
    64    C    2  dxy    Ryd( 3d)     0.00067       3.26658
    65    C    2  dxy    Ryd( 4d)     0.00049       3.44473
    66    C    2  dxy    Ryd( 5d)     0.00006       5.03081
    67    C    2  dxz    Ryd( 3d)     0.00162       1.58423
    68    C    2  dxz    Ryd( 4d)     0.00014       2.41172
    69    C    2  dxz    Ryd( 5d)     0.00007       2.96985
    70    C    2  dyz    Ryd( 3d)     0.00170       1.66252
    71    C    2  dyz    Ryd( 4d)     0.00014       2.46000
    72    C    2  dyz    Ryd( 5d)     0.00003       3.00539
    73    C    2  dx2y2  Ryd( 3d)     0.00128       3.25193
    74    C    2  dx2y2  Ryd( 4d)     0.00030       3.47969
    75    C    2  dx2y2  Ryd( 5d)     0.00010       4.96322
    76    C    2  dz2    Ryd( 3d)     0.00061       2.05558
    77    C    2  dz2    Ryd( 4d)     0.00041       3.40089
    78    C    2  dz2    Ryd( 5d)     0.00006       4.11953
    79    C    2  f(0)   Ryd( 4f)     0.00004       1.51922
    80    C    2  f(0)   Ryd( 5f)     0.00021       3.70044
    81    C    2  f(C1)  Ryd( 4f)     0.00084       1.76737
    82    C    2  f(C1)  Ryd( 5f)     0.00018       3.83724
    83    C    2  f(S1)  Ryd( 4f)     0.00048       1.88512
    84    C    2  f(S1)  Ryd( 5f)     0.00025       3.84659
    85    C    2  f(C2)  Ryd( 4f)     0.00037       1.43254
    86    C    2  f(C2)  Ryd( 5f)     0.00003       3.80319
    87    C    2  f(S2)  Ryd( 4f)     0.00081       1.37479
    88    C    2  f(S2)  Ryd( 5f)     0.00003       3.75407
    89    C    2  f(C3)  Ryd( 4f)     0.00283       2.41216
    90    C    2  f(C3)  Ryd( 5f)     0.00009       4.90730
    91    C    2  f(S3)  Ryd( 4f)     0.00039       3.43837
    92    C    2  f(S3)  Ryd( 5f)     0.00008       4.75030
 
    93    O    3  S      Cor( 1S)     1.99974     -19.46046
    94    O    3  S      Val( 2S)     1.58109      -0.94831
    95    O    3  S      Ryd( 4S)     0.00156       2.60640
    96    O    3  S      Ryd( 3S)     0.00018       1.56466
    97    O    3  S      Ryd( 5S)     0.00001      10.64810
    98    O    3  px     Val( 2p)     1.32904      -0.32623
    99    O    3  px     Ryd( 4p)     0.00140       2.00289
   100    O    3  px     Ryd( 3p)     0.00015       1.05722
   101    O    3  px     Ryd( 5p)     0.00004       5.44487
   102    O    3  py     Val( 2p)     1.73235      -0.38671
   103    O    3  py     Ryd( 4p)     0.00331       1.24673
   104    O    3  py     Ryd( 3p)     0.00018       1.15155
   105    O    3  py     Ryd( 5p)     0.00012       4.74518
   106    O    3  pz     Val( 2p)     1.84213      -0.38834
   107    O    3  pz     Ryd( 4p)     0.00358       0.98458
   108    O    3  pz     Ryd( 3p)     0.00015       0.83403
   109    O    3  pz     Ryd( 5p)     0.00001       4.14558
   110    O    3  dxy    Ryd( 3d)     0.00400       2.62494
   111    O    3  dxy    Ryd( 4d)     0.00024       3.66862
   112    O    3  dxy    Ryd( 5d)     0.00004       6.80605
   113    O    3  dxz    Ryd( 3d)     0.00028       1.45514
   114    O    3  dxz    Ryd( 4d)     0.00032       2.60244
   115    O    3  dxz    Ryd( 5d)     0.00003       6.42443
   116    O    3  dyz    Ryd( 3d)     0.00352       1.22726
   117    O    3  dyz    Ryd( 4d)     0.00003       2.55321
   118    O    3  dyz    Ryd( 5d)     0.00002       6.12638
   119    O    3  dx2y2  Ryd( 3d)     0.00331       2.02944
   120    O    3  dx2y2  Ryd( 4d)     0.00032       3.06010
   121    O    3  dx2y2  Ryd( 5d)     0.00004       6.86058
   122    O    3  dz2    Ryd( 3d)     0.00302       1.64720
   123    O    3  dz2    Ryd( 4d)     0.00017       2.88034
   124    O    3  dz2    Ryd( 5d)     0.00005       6.73308
   125    O    3  f(0)   Ryd( 4f)     0.00051       2.84649
   126    O    3  f(0)   Ryd( 5f)     0.00002       6.18844
   127    O    3  f(C1)  Ryd( 4f)     0.00014       4.45668
   128    O    3  f(C1)  Ryd( 5f)     0.00005       6.62241
   129    O    3  f(S1)  Ryd( 4f)     0.00013       3.56381
   130    O    3  f(S1)  Ryd( 5f)     0.00002       6.39302
   131    O    3  f(C2)  Ryd( 4f)     0.00018       2.92071
   132    O    3  f(C2)  Ryd( 5f)     0.00002       6.45308
   133    O    3  f(S2)  Ryd( 4f)     0.00002       2.96692
   134    O    3  f(S2)  Ryd( 5f)     0.00002       6.35104
   135    O    3  f(C3)  Ryd( 4f)     0.00008       3.72884
   136    O    3  f(C3)  Ryd( 5f)     0.00005       6.71621
   137    O    3  f(S3)  Ryd( 4f)     0.00011       5.34753
   138    O    3  f(S3)  Ryd( 5f)     0.00008       6.89764
 
   139    C    4  S      Cor( 1S)     1.99941     -10.48027
   140    C    4  S      Val( 2S)     1.09221      -0.32376
   141    C    4  S      Ryd( 3S)     0.00185       1.05376
   142    C    4  S      Ryd( 4S)     0.00019       3.36402
   143    C    4  S      Ryd( 5S)     0.00008       3.62721
   144    C    4  px     Val( 2p)     0.86613      -0.09117
   145    C    4  px     Ryd( 4p)     0.00259       1.15371
   146    C    4  px     Ryd( 5p)     0.00023       2.02996
   147    C    4  px     Ryd( 3p)     0.00003       0.75540
   148    C    4  py     Val( 2p)     1.07041      -0.11754
   149    C    4  py     Ryd( 4p)     0.00289       1.01744
   150    C    4  py     Ryd( 5p)     0.00009       2.28008
   151    C    4  py     Ryd( 3p)     0.00011       0.69102
   152    C    4  pz     Val( 2p)     1.17751      -0.13271
   153    C    4  pz     Ryd( 4p)     0.00032       1.06475
   154    C    4  pz     Ryd( 5p)     0.00017       1.99129
   155    C    4  pz     Ryd( 3p)     0.00002       0.60712
   156    C    4  dxy    Ryd( 5d)     0.00085       3.78645
   157    C    4  dxy    Ryd( 3d)     0.00011       1.24712
   158    C    4  dxy    Ryd( 4d)     0.00003       3.50564
   159    C    4  dxz    Ryd( 4d)     0.00054       3.05143
   160    C    4  dxz    Ryd( 3d)     0.00010       1.22473
   161    C    4  dxz    Ryd( 5d)     0.00005       3.17834
   162    C    4  dyz    Ryd( 5d)     0.00132       3.45430
   163    C    4  dyz    Ryd( 3d)     0.00022       1.33104
   164    C    4  dyz    Ryd( 4d)     0.00001       3.19154
   165    C    4  dx2y2  Ryd( 4d)     0.00048       3.30546
   166    C    4  dx2y2  Ryd( 3d)     0.00007       1.30118
   167    C    4  dx2y2  Ryd( 5d)     0.00002       3.44680
   168    C    4  dz2    Ryd( 5d)     0.00064       3.55533
   169    C    4  dz2    Ryd( 3d)     0.00015       1.30050
   170    C    4  dz2    Ryd( 4d)     0.00003       3.36551
   171    C    4  f(0)   Ryd( 4f)     0.00003       2.18346
   172    C    4  f(0)   Ryd( 5f)     0.00001       3.61727
   173    C    4  f(C1)  Ryd( 4f)     0.00013       2.84996
   174    C    4  f(C1)  Ryd( 5f)     0.00001       3.75789
   175    C    4  f(S1)  Ryd( 4f)     0.00012       2.76765
   176    C    4  f(S1)  Ryd( 5f)     0.00013       3.84759
   177    C    4  f(C2)  Ryd( 4f)     0.00018       2.46583
   178    C    4  f(C2)  Ryd( 5f)     0.00000       3.57600
   179    C    4  f(S2)  Ryd( 4f)     0.00004       2.37034
   180    C    4  f(S2)  Ryd( 5f)     0.00004       3.58206
   181    C    4  f(C3)  Ryd( 4f)     0.00008       2.50594
   182    C    4  f(C3)  Ryd( 5f)     0.00005       3.67059
   183    C    4  f(S3)  Ryd( 4f)     0.00011       2.83101
   184    C    4  f(S3)  Ryd( 5f)     0.00007       3.74247
 
   185    C    5  S      Cor( 1S)     1.99905     -10.36797
   186    C    5  S      Val( 2S)     0.93926      -0.17740
   187    C    5  S      Ryd( 3S)     0.00217       1.56543
   188    C    5  S      Ryd( 5S)     0.00011       2.59364
   189    C    5  S      Ryd( 4S)     0.00003       2.35592
   190    C    5  px     Val( 2p)     1.16076      -0.09253
   191    C    5  px     Ryd( 4p)     0.00350       1.81694
   192    C    5  px     Ryd( 3p)     0.00011       1.05683
   193    C    5  px     Ryd( 5p)     0.00008       2.83885
   194    C    5  py     Val( 2p)     1.11268      -0.08165
   195    C    5  py     Ryd( 4p)     0.00508       1.63387
   196    C    5  py     Ryd( 3p)     0.00022       1.36371
   197    C    5  py     Ryd( 5p)     0.00004       2.24924
   198    C    5  pz     Val( 2p)     1.09425      -0.13314
   199    C    5  pz     Ryd( 3p)     0.00165       0.85385
   200    C    5  pz     Ryd( 4p)     0.00050       1.07395
   201    C    5  pz     Ryd( 5p)     0.00011       1.69632
   202    C    5  dxy    Ryd( 3d)     0.00126       2.30695
   203    C    5  dxy    Ryd( 4d)     0.00021       3.43746
   204    C    5  dxy    Ryd( 5d)     0.00010       4.00155
   205    C    5  dxz    Ryd( 3d)     0.00007       1.43529
   206    C    5  dxz    Ryd( 5d)     0.00019       2.76844
   207    C    5  dxz    Ryd( 4d)     0.00005       2.15575
   208    C    5  dyz    Ryd( 3d)     0.00054       1.39782
   209    C    5  dyz    Ryd( 5d)     0.00006       2.89376
   210    C    5  dyz    Ryd( 4d)     0.00003       1.97601
   211    C    5  dx2y2  Ryd( 5d)     0.00206       3.62956
   212    C    5  dx2y2  Ryd( 4d)     0.00020       3.59494
   213    C    5  dx2y2  Ryd( 3d)     0.00003       3.23249
   214    C    5  dz2    Ryd( 3d)     0.00131       1.70658
   215    C    5  dz2    Ryd( 5d)     0.00016       4.14111
   216    C    5  dz2    Ryd( 4d)     0.00005       4.10570
   217    C    5  f(0)   Ryd( 4f)     0.00048       1.79844
   218    C    5  f(0)   Ryd( 5f)     0.00011       3.11383
   219    C    5  f(C1)  Ryd( 4f)     0.00094       2.21382
   220    C    5  f(C1)  Ryd( 5f)     0.00004       3.36786
   221    C    5  f(S1)  Ryd( 4f)     0.00066       2.22223
   222    C    5  f(S1)  Ryd( 5f)     0.00013       3.29563
   223    C    5  f(C2)  Ryd( 4f)     0.00012       1.79882
   224    C    5  f(C2)  Ryd( 5f)     0.00005       3.15688
   225    C    5  f(S2)  Ryd( 4f)     0.00011       2.01056
   226    C    5  f(S2)  Ryd( 5f)     0.00009       3.04895
   227    C    5  f(C3)  Ryd( 4f)     0.00060       2.43793
   228    C    5  f(C3)  Ryd( 5f)     0.00025       3.73090
   229    C    5  f(S3)  Ryd( 4f)     0.00060       3.00067
   230    C    5  f(S3)  Ryd( 5f)     0.00016       3.83115
 
   231    C    6  S      Cor( 1S)     1.99907     -10.38146
   232    C    6  S      Val( 2S)     0.93726      -0.18595
   233    C    6  S      Ryd( 3S)     0.00112       2.05819
   234    C    6  S      Ryd( 4S)     0.00008       2.22610
   235    C    6  S      Ryd( 5S)     0.00003       2.63784
   236    C    6  px     Val( 2p)     1.04506      -0.06400
   237    C    6  px     Ryd( 4p)     0.00366       1.77197
   238    C    6  px     Ryd( 3p)     0.00002       1.60137
   239    C    6  py     Val( 2p)     1.17089      -0.08768
   240    C    6  py     Ryd( 3p)     0.00491       1.65004
   241    C    6  py     Ryd( 4p)     0.00005       1.93837
   242    C    6  pz     Val( 2p)     0.93614      -0.12299
   243    C    6  pz     Ryd( 3p)     0.00049       1.04988
   244    C    6  pz     Ryd( 4p)     0.00005       1.41005
   245    C    6  dxy    Ryd( 4d)     0.00261       3.93754
   246    C    6  dxy    Ryd( 5d)     0.00016       4.16595
   247    C    6  dxy    Ryd( 3d)     0.00006       1.46680
   248    C    6  dxz    Ryd( 4d)     0.00078       1.64734
   249    C    6  dxz    Ryd( 5d)     0.00000       3.10184
   250    C    6  dxz    Ryd( 3d)     0.00003       1.51977
   251    C    6  dyz    Ryd( 3d)     0.00092       1.31785
   252    C    6  dyz    Ryd( 5d)     0.00002       3.07151
   253    C    6  dyz    Ryd( 4d)     0.00003       1.36516
   254    C    6  dx2y2  Ryd( 3d)     0.00151       2.31243
   255    C    6  dx2y2  Ryd( 5d)     0.00020       4.05562
   256    C    6  dx2y2  Ryd( 4d)     0.00005       2.57521
   257    C    6  dz2    Ryd( 3d)     0.00108       1.95398
   258    C    6  dz2    Ryd( 5d)     0.00007       4.20327
   259    C    6  dz2    Ryd( 4d)     0.00012       3.09116
   260    C    6  f(0)   Ryd( 5f)     0.00015       3.71506
   261    C    6  f(0)   Ryd( 4f)     0.00005       2.01795
   262    C    6  f(C1)  Ryd( 5f)     0.00019       4.04928
   263    C    6  f(C1)  Ryd( 4f)     0.00002       2.77335
   264    C    6  f(S1)  Ryd( 5f)     0.00012       3.83093
   265    C    6  f(S1)  Ryd( 4f)     0.00004       2.77969
   266    C    6  f(C2)  Ryd( 5f)     0.00001       3.81148
   267    C    6  f(C2)  Ryd( 4f)     0.00002       2.23040
   268    C    6  f(S2)  Ryd( 5f)     0.00003       3.88466
   269    C    6  f(S2)  Ryd( 4f)     0.00001       2.34022
   270    C    6  f(C3)  Ryd( 5f)     0.00008       5.01998
   271    C    6  f(C3)  Ryd( 4f)     0.00005       4.04043
   272    C    6  f(S3)  Ryd( 4f)     0.00012       4.82317
   273    C    6  f(S3)  Ryd( 5f)     0.00004       5.98364
 
   274    C    7  S      Cor( 1S)     1.99904     -10.36848
   275    C    7  S      Val( 2S)     0.93960      -0.17772
   276    C    7  S      Ryd( 3S)     0.00215       1.56361
   277    C    7  S      Ryd( 5S)     0.00011       2.57135
   278    C    7  S      Ryd( 4S)     0.00003       2.37003
   279    C    7  px     Val( 2p)     1.16759      -0.09308
   280    C    7  px     Ryd( 4p)     0.00353       1.79742
   281    C    7  px     Ryd( 3p)     0.00011       1.04982
   282    C    7  px     Ryd( 5p)     0.00008       2.82900
   283    C    7  py     Val( 2p)     1.10597      -0.08128
   284    C    7  py     Ryd( 4p)     0.00500       1.63909
   285    C    7  py     Ryd( 3p)     0.00021       1.36153
   286    C    7  py     Ryd( 5p)     0.00004       2.31087
   287    C    7  pz     Val( 2p)     1.09269      -0.13288
   288    C    7  pz     Ryd( 3p)     0.00163       0.85127
   289    C    7  pz     Ryd( 4p)     0.00050       1.08215
   290    C    7  pz     Ryd( 5p)     0.00012       1.70001
   291    C    7  dxy    Ryd( 3d)     0.00127       2.44083
   292    C    7  dxy    Ryd( 4d)     0.00022       3.36548
   293    C    7  dxy    Ryd( 5d)     0.00010       4.02126
   294    C    7  dxz    Ryd( 3d)     0.00006       1.43584
   295    C    7  dxz    Ryd( 5d)     0.00018       2.74803
   296    C    7  dxz    Ryd( 4d)     0.00006       2.15624
   297    C    7  dyz    Ryd( 3d)     0.00061       1.40589
   298    C    7  dyz    Ryd( 5d)     0.00007       2.85211
   299    C    7  dyz    Ryd( 4d)     0.00003       2.03509
   300    C    7  dx2y2  Ryd( 4d)     0.00202       3.46850
   301    C    7  dx2y2  Ryd( 5d)     0.00018       3.56152
   302    C    7  dx2y2  Ryd( 3d)     0.00003       3.29054
   303    C    7  dz2    Ryd( 3d)     0.00129       1.71191
   304    C    7  dz2    Ryd( 4d)     0.00016       4.14211
   305    C    7  dz2    Ryd( 5d)     0.00005       4.14682
   306    C    7  f(0)   Ryd( 4f)     0.00048       1.81106
   307    C    7  f(0)   Ryd( 5f)     0.00011       3.10377
   308    C    7  f(C1)  Ryd( 4f)     0.00093       2.20542
   309    C    7  f(C1)  Ryd( 5f)     0.00004       3.34255
   310    C    7  f(S1)  Ryd( 4f)     0.00067       2.24592
   311    C    7  f(S1)  Ryd( 5f)     0.00013       3.29277
   312    C    7  f(C2)  Ryd( 4f)     0.00011       1.81693
   313    C    7  f(C2)  Ryd( 5f)     0.00006       3.14625
   314    C    7  f(S2)  Ryd( 4f)     0.00011       2.01820
   315    C    7  f(S2)  Ryd( 5f)     0.00008       3.03944
   316    C    7  f(C3)  Ryd( 4f)     0.00063       2.40891
   317    C    7  f(C3)  Ryd( 5f)     0.00025       3.70148
   318    C    7  f(S3)  Ryd( 4f)     0.00056       3.03824
   319    C    7  f(S3)  Ryd( 5f)     0.00016       3.83427
 
   320    C    8  S      Cor( 1S)     1.99859     -10.46864
   321    C    8  S      Val( 2S)     0.82010      -0.11621
   322    C    8  S      Ryd( 3S)     0.00144       2.13597
   323    C    8  S      Ryd( 4S)     0.00016       2.24844
   324    C    8  S      Ryd( 5S)     0.00002       2.27890
   325    C    8  px     Val( 2p)     0.84188      -0.03526
   326    C    8  px     Ryd( 4p)     0.00375       1.82052
   327    C    8  px     Ryd( 5p)     0.00008       2.01825
   328    C    8  px     Ryd( 3p)     0.00005       1.80978
   329    C    8  py     Val( 2p)     0.98363      -0.06005
   330    C    8  py     Ryd( 4p)     0.00529       1.93826
   331    C    8  py     Ryd( 5p)     0.00015       2.01714
   332    C    8  py     Ryd( 3p)     0.00005       1.92093
   333    C    8  pz     Val( 2p)     0.92418      -0.12671
   334    C    8  pz     Ryd( 3p)     0.00052       1.02054
   335    C    8  pz     Ryd( 5p)     0.00019       1.29385
   336    C    8  pz     Ryd( 4p)     0.00011       1.07010
   337    C    8  dxy    Ryd( 3d)     0.00058       3.25797
   338    C    8  dxy    Ryd( 4d)     0.00049       3.43043
   339    C    8  dxy    Ryd( 5d)     0.00006       4.91924
   340    C    8  dxz    Ryd( 3d)     0.00154       1.63799
   341    C    8  dxz    Ryd( 4d)     0.00013       2.37618
   342    C    8  dxz    Ryd( 5d)     0.00006       2.96610
   343    C    8  dyz    Ryd( 3d)     0.00173       1.68101
   344    C    8  dyz    Ryd( 4d)     0.00015       2.42982
   345    C    8  dyz    Ryd( 5d)     0.00003       2.99130
   346    C    8  dx2y2  Ryd( 3d)     0.00126       3.27824
   347    C    8  dx2y2  Ryd( 4d)     0.00028       3.47769
   348    C    8  dx2y2  Ryd( 5d)     0.00010       5.06863
   349    C    8  dz2    Ryd( 3d)     0.00059       2.13225
   350    C    8  dz2    Ryd( 4d)     0.00042       3.31689
   351    C    8  dz2    Ryd( 5d)     0.00006       4.04538
   352    C    8  f(0)   Ryd( 4f)     0.00004       1.52519
   353    C    8  f(0)   Ryd( 5f)     0.00020       3.70459
   354    C    8  f(C1)  Ryd( 4f)     0.00084       1.77284
   355    C    8  f(C1)  Ryd( 5f)     0.00019       3.83895
   356    C    8  f(S1)  Ryd( 4f)     0.00046       1.88588
   357    C    8  f(S1)  Ryd( 5f)     0.00025       3.83479
   358    C    8  f(C2)  Ryd( 4f)     0.00040       1.43207
   359    C    8  f(C2)  Ryd( 5f)     0.00002       3.79499
   360    C    8  f(S2)  Ryd( 4f)     0.00079       1.38239
   361    C    8  f(S2)  Ryd( 5f)     0.00004       3.76297
   362    C    8  f(C3)  Ryd( 4f)     0.00289       2.41629
   363    C    8  f(C3)  Ryd( 5f)     0.00009       4.92603
   364    C    8  f(S3)  Ryd( 4f)     0.00038       3.44785
   365    C    8  f(S3)  Ryd( 5f)     0.00006       4.70198
 
   366    O    9  S      Cor( 1S)     1.99974     -19.45735
   367    O    9  S      Val( 2S)     1.58601      -0.94401
   368    O    9  S      Ryd( 4S)     0.00175       2.54074
   369    O    9  S      Ryd( 3S)     0.00018       1.56497
   370    O    9  S      Ryd( 5S)     0.00001      10.83054
   371    O    9  px     Val( 2p)     1.32387      -0.31799
   372    O    9  px     Ryd( 4p)     0.00133       2.01076
   373    O    9  px     Ryd( 3p)     0.00016       1.03976
   374    O    9  px     Ryd( 5p)     0.00004       5.42192
   375    O    9  py     Val( 2p)     1.72661      -0.37877
   376    O    9  py     Ryd( 4p)     0.00300       1.20892
   377    O    9  py     Ryd( 3p)     0.00015       1.09597
   378    O    9  py     Ryd( 5p)     0.00012       4.77944
   379    O    9  pz     Val( 2p)     1.83365      -0.38088
   380    O    9  pz     Ryd( 4p)     0.00368       0.99043
   381    O    9  pz     Ryd( 3p)     0.00013       0.80268
   382    O    9  pz     Ryd( 5p)     0.00001       4.15905
   383    O    9  dxy    Ryd( 3d)     0.00441       2.59788
   384    O    9  dxy    Ryd( 4d)     0.00026       3.69162
   385    O    9  dxy    Ryd( 5d)     0.00004       6.80601
   386    O    9  dxz    Ryd( 3d)     0.00031       1.46748
   387    O    9  dxz    Ryd( 4d)     0.00032       2.58036
   388    O    9  dxz    Ryd( 5d)     0.00003       6.44595
   389    O    9  dyz    Ryd( 3d)     0.00374       1.23195
   390    O    9  dyz    Ryd( 4d)     0.00002       2.51972
   391    O    9  dyz    Ryd( 5d)     0.00002       6.13754
   392    O    9  dx2y2  Ryd( 3d)     0.00329       1.97887
   393    O    9  dx2y2  Ryd( 4d)     0.00030       2.96025
   394    O    9  dx2y2  Ryd( 5d)     0.00004       6.84332
   395    O    9  dz2    Ryd( 3d)     0.00315       1.62625
   396    O    9  dz2    Ryd( 4d)     0.00017       2.84231
   397    O    9  dz2    Ryd( 5d)     0.00004       6.71463
   398    O    9  f(0)   Ryd( 4f)     0.00050       2.84333
   399    O    9  f(0)   Ryd( 5f)     0.00002       6.20649
   400    O    9  f(C1)  Ryd( 4f)     0.00014       4.39578
   401    O    9  f(C1)  Ryd( 5f)     0.00005       6.62084
   402    O    9  f(S1)  Ryd( 4f)     0.00012       3.56784
   403    O    9  f(S1)  Ryd( 5f)     0.00002       6.38552
   404    O    9  f(C2)  Ryd( 4f)     0.00019       2.91938
   405    O    9  f(C2)  Ryd( 5f)     0.00002       6.48326
   406    O    9  f(S2)  Ryd( 4f)     0.00002       2.96567
   407    O    9  f(S2)  Ryd( 5f)     0.00002       6.34589
   408    O    9  f(C3)  Ryd( 4f)     0.00008       3.64383
   409    O    9  f(C3)  Ryd( 5f)     0.00006       6.69734
   410    O    9  f(S3)  Ryd( 4f)     0.00011       5.38400
   411    O    9  f(S3)  Ryd( 5f)     0.00007       6.89808
 
   412    C   10  S      Cor( 1S)     1.99941     -10.47551
   413    C   10  S      Val( 2S)     1.09233      -0.31985
   414    C   10  S      Ryd( 3S)     0.00182       1.05741
   415    C   10  S      Ryd( 4S)     0.00019       3.43182
   416    C   10  S      Ryd( 5S)     0.00008       3.60840
   417    C   10  px     Val( 2p)     0.84217      -0.08316
   418    C   10  px     Ryd( 4p)     0.00265       1.14234
   419    C   10  px     Ryd( 5p)     0.00023       2.03083
   420    C   10  px     Ryd( 3p)     0.00003       0.72271
   421    C   10  py     Val( 2p)     1.09872      -0.11734
   422    C   10  py     Ryd( 4p)     0.00275       1.04074
   423    C   10  py     Ryd( 5p)     0.00009       2.30360
   424    C   10  py     Ryd( 3p)     0.00010       0.74130
   425    C   10  pz     Val( 2p)     1.17485      -0.12768
   426    C   10  pz     Ryd( 4p)     0.00030       1.06928
   427    C   10  pz     Ryd( 5p)     0.00017       1.99848
   428    C   10  pz     Ryd( 3p)     0.00001       0.61621
   429    C   10  dxy    Ryd( 5d)     0.00087       3.70995
   430    C   10  dxy    Ryd( 3d)     0.00009       1.26296
   431    C   10  dxy    Ryd( 4d)     0.00004       3.52070
   432    C   10  dxz    Ryd( 4d)     0.00062       3.05769
   433    C   10  dxz    Ryd( 3d)     0.00010       1.22566
   434    C   10  dxz    Ryd( 5d)     0.00004       3.18262
   435    C   10  dyz    Ryd( 5d)     0.00123       3.45586
   436    C   10  dyz    Ryd( 3d)     0.00022       1.33795
[...]
 2,0.02613847,-0.01986065,-0.04845305,0.00020936,-0.00076416,-0.0009618
 1,-0.00022063,0.00025120,0.00040903,0.00002651,0.00009887,0.00019741,0
 .00028960,-0.00043674,-0.00040416,-0.00017782,0.00014498,-0.00003023,0
 .00001571,-0.00001744,-0.00002703,-0.00031506,0.00033425,0.00038357,0.
 00011296,-0.00021155,-0.00010050,0.00022476,-0.00005745,-0.00011586,-0
 .00876062,0.01264103,0.06079922,-0.00081739,0.00070159,-0.00077806,0.0
 0327209,-0.00394365,0.00065172,-0.00901919,-0.01139718,-0.01325010,-0.
 08025037,-0.07632162,-0.01378970,0.00018844,-0.00017299,0.00023700,-0.
 00031804,0.00065080,-0.00029925,-0.00001714,0.00028671,0.00071749,0.00
 080430,-0.00054689,-0.00035211,-0.00003436,0.00006425,0.00014184,-0.00
 004749,0.00000799,-0.00000337,0.00004573,-0.00018470,0.00020736,-0.000
 02561,0.00007034,-0.00004908,-0.00003424,0.00004188,0.00000298,0.01088
 856,0.02242085,0.00494142,0.08379021,-0.00009466,-0.00018491,0.0003375
 6,0.00136731,0.00047575,-0.00011254,-0.00120591,0.00728521,-0.00590174
 ,-0.08071758,-0.27502879,-0.04400994,-0.00038100,-0.00000950,-0.001250
 87,0.00035862,-0.00031364,0.00084782,-0.00023226,-0.00009802,-0.000475
 06,-0.00031624,0.00022478,0.00017861,0.00000270,0.00004863,0.00006882,
 0.00002784,-0.00000644,0.00000220,-0.00011605,-0.00009199,0.00033999,0
 .00003017,0.00006486,-0.00012630,0.00015147,0.00004206,-0.00015869,-0.
 00738995,-0.01680981,-0.00212029,0.08857250,0.29199971,-0.00065833,0.0
 0080836,-0.00106680,0.00454304,-0.00445997,0.00158537,-0.02183173,-0.0
 2964665,-0.02267748,-0.01297167,-0.03830388,-0.05704353,-0.00002245,0.
 00086372,0.00092720,-0.00015023,0.00021959,-0.00031653,-0.00025548,0.0
 0029782,0.00031804,0.00077928,-0.00022871,-0.00004881,-0.00018941,0.00
 006423,-0.00012838,0.00004571,-0.00006073,0.00002913,-0.00029233,-0.00
 013346,0.00078780,0.00003654,-0.00005024,-0.00024589,0.00021715,0.0000
 5236,-0.00019831,0.00011393,-0.00272501,0.00053615,0.02413116,0.053156
 42,0.07064226,-0.00101840,-0.00013696,-0.00057105,0.00353452,-0.000422
 97,-0.00024199,0.01303025,0.00720142,-0.01768941,-0.17088947,-0.053754
 98,0.12207592,0.00042735,0.00029464,0.00145914,-0.00097264,-0.00005192
 ,-0.00070112,0.00006835,0.00021664,0.00077505,0.00051707,-0.00079439,-
 0.00011922,-0.00004582,0.00004029,-0.00009685,0.00000925,0.00002180,-0
 .00000582,0.00006898,-0.00000389,0.00001519,0.00000130,0.00010104,0.00
 002839,0.00004897,0.00002732,-0.00002600,-0.01408242,-0.00887875,0.015
 09420,-0.00636758,-0.00133726,0.00694180,0.17600461,0.00042927,-0.0002
 9087,0.00022407,-0.00161142,0.00083668,0.00041882,0.00367117,0.0026919
 5,-0.00020498,-0.05188068,-0.07643840,0.05316565,-0.00038192,0.0002492
 3,0.00041857,0.00048549,-0.00010250,-0.00008568,-0.00008936,-0.0001388
 1,-0.00046096,-0.00032657,0.00041163,0.00026421,-0.00005716,-0.0000354
 1,-0.00019162,0.00005515,-0.00004218,0.00001895,-0.00010754,0.00017441
 ,0.00010781,0.00003298,-0.00014708,-0.00004947,0.00005314,-0.00002989,
 -0.00005716,0.01373254,0.00807980,-0.01520920,-0.02023161,-0.00797032,
 0.02011771,0.05600789,0.07428870,-0.00137031,0.00024794,-0.00076837,0.
 00641572,-0.00370295,0.00110120,0.00743287,0.01025637,-0.04039464,0.11
 486713,0.05236975,-0.16508233,-0.00047039,0.00016054,0.00048347,-0.000
 29026,0.00004708,0.00007522,-0.00024700,0.00040434,0.00029693,0.000458
 91,-0.00073655,0.00009235,-0.00013276,0.00012516,-0.00003283,0.0000597
 8,-0.00000884,0.00000810,0.00040528,0.00054449,0.00054447,-0.00008916,
 -0.00026467,-0.00011732,-0.00006575,-0.00007630,-0.00018941,0.00201461
 ,0.00002488,0.00064756,-0.00299926,-0.00135061,0.00676401,-0.12585850,
 -0.05869056,0.19623053,0.00110320,0.00361429,0.00136085,0.00930073,-0.
 00086581,0.01102247,-0.00135288,-0.00174669,-0.00143688,-0.00220137,0.
 00193701,0.00084537,-0.09177564,0.00374555,-0.11034431,-0.00631716,-0.
 00346469,-0.02331680,-0.00082865,0.00558270,-0.00127513,-0.00121976,0.
 00056719,0.00051089,0.00008540,-0.00033456,0.00017465,-0.00013963,-0.0
 0001310,-0.00002127,0.00084748,-0.00018330,0.00033473,-0.00021406,0.00
 029951,0.00000889,-0.00020665,0.00001163,0.00010334,-0.00010293,-0.000
 08978,0.00047411,-0.00197309,0.00124713,-0.00029095,-0.00035543,0.0002
 6198,-0.00007144,0.09622900,0.00365064,0.00034942,-0.00365828,-0.00967
 274,0.00346520,-0.01633234,-0.00114419,-0.00087630,0.00245394,0.000968
 44,-0.00138764,-0.00084893,0.00402199,-0.04364887,-0.02531975,0.005909
 75,0.00398027,0.01719218,0.00542841,0.00203542,-0.00071602,0.00074970,
 -0.00140319,0.00000224,-0.00040312,-0.00005317,0.00007888,-0.00000194,
 -0.00011596,0.00007400,-0.00073962,0.00099868,-0.00043232,0.00008720,-
 0.00049401,-0.00007432,0.00029993,-0.00016521,-0.00016377,-0.00026552,
 -0.00017854,0.00011335,0.00002675,0.00029050,0.00000890,0.00136938,-0.
 00150607,0.00054989,-0.00830872,0.04021330,0.00144084,-0.00370378,-0.0
 0119822,-0.01010178,0.00082726,-0.01494608,0.00004155,0.00122881,0.000
 21683,-0.00146459,0.00107352,-0.00055852,-0.10949523,-0.02609956,-0.30
 236994,-0.00115169,-0.00075056,-0.00246620,-0.00164619,-0.00041779,0.0
 0257665,0.00098016,-0.00039090,0.00014152,0.00003804,0.00020469,0.0001
 5354,-0.00001511,0.00006110,-0.00003369,-0.00117879,0.00080823,0.00007
 254,0.00023872,-0.00056708,-0.00017526,0.00036351,-0.00010508,-0.00029
 233,0.00005399,0.00044510,0.00074304,0.00042602,0.00053444,0.00009013,
 -0.00100279,0.00021421,0.00026264,0.12176279,0.02558194,0.31769640,-0.
 00098394,-0.00043116,-0.00049325,-0.00088178,0.00522047,-0.00325283,-0
 .00093141,0.00098073,0.00094309,0.00024948,-0.00006446,0.00044842,-0.0
 0516714,0.01539226,0.01796304,-0.09642013,0.07706152,0.07355530,0.0090
 2666,-0.00777510,-0.00986483,0.00203017,0.00253237,-0.00412100,0.00023
 038,-0.00062651,-0.00063926,0.00012058,-0.00008749,0.00011702,-0.00013
 434,-0.00021778,0.00006229,0.00004022,-0.00004257,-0.00003798,-0.00004
 439,0.00002725,0.00008379,-0.00000735,0.00001485,-0.00006215,-0.000049
 76,-0.00000518,-0.00004305,0.00004595,-0.00000429,-0.00005506,-0.00085
 298,-0.00256831,0.00080172,0.09485412,-0.00043523,-0.00058445,0.000765
 78,0.00536160,0.00305424,0.00025123,0.00052703,-0.00086500,-0.00052388
 ,-0.00021823,-0.00000980,-0.00034337,0.00610174,-0.00578566,-0.0128353
 7,0.07704923,-0.15363882,-0.12371789,0.00150625,0.00330631,-0.00003152
 ,0.00241333,0.00489497,-0.00102029,-0.00015661,-0.00011317,-0.00005412
 ,0.00007529,-0.00010002,0.00001994,-0.00021785,-0.00019954,0.00013698,
 0.00003297,-0.00010710,-0.00009235,-0.00003120,0.00004621,0.00004344,0
 .00003713,0.00002257,0.00002534,-0.00001579,0.00006542,0.00002527,0.00
 003413,-0.00001749,0.00004280,-0.00237058,-0.00198213,0.00131047,-0.08
 732938,0.15405913,-0.00049510,0.00076138,-0.00040442,-0.00295587,0.000
 01927,0.00162610,-0.00016345,0.00038046,0.00038586,0.00006301,-0.00002
 870,0.00000037,-0.00414775,0.00508225,0.00863794,0.07354993,-0.1237310
 9,-0.19236924,0.01224189,-0.01795904,-0.01464760,-0.00440809,-0.000764
 74,-0.00312626,0.00047446,-0.00094122,-0.00152778,0.00050644,-0.000285
 13,0.00021946,0.00006221,0.00013688,0.00000913,-0.00000451,-0.00001194
 ,0.00002179,0.00005794,-0.00001874,-0.00004691,-0.00000756,-0.00001850
 ,-0.00001712,-0.00000900,-0.00001864,0.00000695,-0.00002036,0.00002805
 ,-0.00000570,0.00128025,0.00092142,0.00021169,-0.07674180,0.13497099,0
 .20045010,0.00178960,0.00296048,0.00115598,0.00000860,-0.00045883,0.00
 048209,0.00000133,-0.00029967,0.00008133,-0.00009645,-0.00005917,-0.00
 003915,0.00309979,0.00159874,-0.00322369,-0.00685566,0.00641335,-0.000
 94490,-0.23527346,0.14542242,-0.05120857,-0.00632017,0.00556949,-0.003
 82320,-0.00132224,-0.00119918,0.00001804,-0.00073094,-0.00049109,-0.00
 206667,0.00009660,-0.00004666,-0.00089454,0.00000785,0.00024492,0.0003
 1516,-0.00018029,0.00001443,0.00023793,-0.00001802,-0.00000411,0.00002
 153,-0.00002116,0.00005212,-0.00003036,0.00001902,-0.00003562,0.000031
 50,-0.00008078,0.00059569,-0.00009261,-0.00108022,-0.00236206,0.000886
 17,0.24692553,0.00294405,0.00079635,-0.00396861,-0.00066558,-0.0006003
 7,-0.00083551,-0.00022693,-0.00012643,0.00025043,-0.00007019,-0.000075
 88,0.00003418,0.00175213,0.00454222,-0.00182534,-0.00288218,0.00362150
 ,-0.00058583,0.14499311,-0.13638450,0.02647695,0.01446492,-0.00654875,
 0.00642072,-0.00184191,-0.00081903,0.00120490,0.00052469,-0.00044752,0
 .00051977,0.00059031,0.00051859,0.00103530,-0.00008820,-0.00043670,-0.
 00027983,0.00012643,-0.00009880,-0.00037255,-0.00001313,-0.00001781,0.
 00001641,-0.00003147,0.00002860,-0.00001860,0.00006125,-0.00002767,0.0
 0003553,0.00016523,0.00045531,-0.00026128,-0.00216043,-0.00211609,0.00
 137992,-0.15664476,0.13753687,0.00108472,-0.00390184,-0.00233177,0.000
 00214,-0.00046816,-0.00188988,0.00021974,0.00012908,0.00031090,-0.0000
 4525,0.00004722,-0.00011694,-0.00285315,-0.00212457,-0.00385818,-0.023
 07499,0.01744120,-0.00156886,-0.05212535,0.02709429,-0.06613649,0.0173
 4035,-0.01064478,0.01068890,-0.00147826,0.00238725,0.00012903,0.000264
 08,-0.00135266,-0.00296947,0.00065462,-0.00011934,0.00130356,-0.000156
 08,-0.00036741,-0.00045441,0.00015498,-0.00000541,-0.00038520,0.000005
 57,0.00002892,0.00004706,0.00007004,0.00002336,0.00002117,-0.00003545,
 -0.00003659,0.00003118,-0.00113280,0.00057588,-0.00009327,0.00136657,0
 .00099481,0.00057288,0.06062224,-0.02948808,0.06967646,-0.00038893,-0.
 00011594,-0.00150665,-0.00012567,0.00032127,0.00041256,-0.00013627,-0.
 00000462,-0.00020710,-0.00000575,0.00001369,0.00004795,0.00006869,-0.0
 0014098,-0.00004065,0.00027299,-0.00015936,-0.00028536,-0.00034555,0.0
 0082986,0.00045521,-0.00318265,0.00316294,0.00113912,-0.01557660,-0.00
 245467,-0.03637752,-0.05505878,-0.01297793,-0.03644979,0.00028188,-0.0
 0023715,-0.00050170,-0.00004645,0.00014003,0.00019351,-0.00011971,-0.0
 0002109,0.00028258,-0.00001030,0.00000395,-0.00001570,-0.00000196,-0.0
 0000196,-0.00000912,-0.00000225,-0.00000104,-0.00000625,0.00001876,-0.
 00003945,0.00000698,-0.00001083,0.00001754,-0.00006107,0.00036796,-0.0
 0053267,0.00029222,0.06741643,0.00041283,0.00029609,0.00091680,0.00018
 044,-0.00024599,-0.00030606,-0.00002243,0.00003004,0.00011798,0.000015
 84,-0.00001877,0.00001061,-0.00015609,0.00006393,0.00003459,-0.0000677
 0,0.00034645,0.00018613,0.00066335,-0.00032858,-0.00052500,0.00275273,
 -0.00177766,-0.00001744,0.00994165,0.00294403,0.02466067,-0.01757173,-
 0.07019484,-0.07642343,0.00004070,0.00032905,0.00014995,-0.00008761,-0
 .00018214,-0.00011614,-0.00002658,-0.00007421,-0.00001221,0.00000448,0
 .00000206,0.00000854,0.00000314,-0.00000278,-0.00000058,0.00000285,-0.
 00000132,0.00000185,-0.00004609,0.00000424,0.00000325,0.00003999,0.000
 02087,0.00002603,-0.00070093,0.00010532,-0.00004430,0.00781849,0.07130
 037,-0.00020220,-0.00011992,-0.00039338,0.00012188,-0.00008946,0.00004
 071,-0.00024562,0.00015265,-0.00014725,0.00004830,0.00000865,0.0001064
 5,-0.00012502,0.00010549,-0.00006477,-0.00002135,-0.00001577,0.0001649
 7,0.00005445,-0.00023496,-0.00001253,-0.00018715,0.00092807,0.00242021
 ,-0.00655784,0.00118110,-0.00925603,-0.04738459,-0.06769948,-0.3017958
 6,0.00012927,-0.00032224,-0.00033025,0.00000141,0.00020404,0.00016449,
 -0.00007448,0.00005669,0.00013761,-0.00001358,0.00000716,-0.00000676,0
 .00000366,-0.00000787,-0.00001203,0.00000359,-0.00000874,-0.00001289,-
 0.00000792,0.00001830,-0.00001177,-0.00000640,-0.00001763,-0.00001194,
 -0.00012464,0.00029540,-0.00001172,0.05641064,0.07183328,0.32380096,-0
 .00081332,0.00057190,-0.00130112,0.00029874,0.00047033,0.00080516,-0.0
 0000312,-0.00008600,-0.00014424,-0.00000437,-0.00001992,0.00002615,0.0
 0023464,-0.00043782,-0.00039627,0.00008911,0.00005803,-0.00044778,0.00
 020535,-0.00000378,-0.00030965,0.00209768,0.00016902,0.00716097,-0.036
 64444,0.00508998,0.00657757,-0.19668565,-0.05280058,0.11368957,0.00023
 058,-0.00069450,0.00015021,-0.00000294,0.00022586,-0.00000391,-0.00011
 054,0.00013886,-0.00003253,-0.00000835,0.00000351,-0.00000442,-0.00000
 553,0.00000808,-0.00001130,-0.00000700,-0.00000044,-0.00000461,0.00002
 231,-0.00006904,0.00001682,-0.00003157,-0.00001140,-0.00006052,-0.0002
 6502,-0.00089711,-0.00058171,0.00709471,0.00143761,-0.00279415,0.22718
 451,0.00020994,-0.00052998,0.00040174,-0.00029061,-0.00009153,-0.00017
 177,0.00020366,-0.00009876,0.00008989,-0.00002508,0.00001089,-0.000075
 07,0.00000774,0.00006421,0.00018243,0.00025982,-0.00023801,0.00001187,
 -0.00087786,0.00061802,0.00060128,-0.00089982,0.00054315,-0.00255289,0
 .02470136,0.00341590,-0.00994900,-0.05653304,-0.07044016,0.04220085,-0
 .00013245,0.00044406,0.00009136,-0.00000595,-0.00018207,-0.00007426,0.
 00010260,-0.00006927,-0.00007026,0.00000999,-0.00000513,0.00000257,-0.
 00000019,0.00000154,0.00001511,-0.00000142,0.00000781,0.00000883,0.000
 03600,-0.00000384,0.00001027,-0.00000569,0.00001544,0.00001313,-0.0000
 8014,-0.00043683,-0.00024707,0.00720351,0.00284165,-0.00562811,0.05001
 737,0.07042080,-0.00041142,0.00059543,-0.00073442,0.00009723,0.0005170
 8,0.00081394,-0.00002327,-0.00002236,-0.00001217,-0.00002697,-0.000017
 28,-0.00003136,0.00068761,-0.00053440,-0.00007235,-0.00053147,0.000665
 70,-0.00085110,0.00093354,-0.00079064,0.00033673,-0.00049605,-0.000833
 64,0.00283189,-0.01142788,-0.00329839,0.00855585,0.12007637,0.04101952
 ,-0.14528477,-0.00003691,0.00014248,0.00011319,-0.00001908,-0.00017815
 ,-0.00007810,0.00000258,-0.00006223,0.00000952,0.00000656,-0.00000525,
 -0.00000298,-0.00001566,0.00000831,-0.00000566,-0.00000409,0.00000953,
 -0.00000201,-0.00004653,-0.00005316,0.00000406,-0.00004031,-0.00003643
 ,0.00003889,-0.00164163,-0.00089170,-0.00089714,0.02284388,0.00933407,
 -0.01529137,-0.12698143,-0.04385173,0.14891889,-0.00130348,-0.00002735
 ,-0.00064315,-0.00000510,-0.00005319,0.00087151,-0.00014660,0.00009577
 ,-0.00015159,0.00004423,0.00002150,0.00004564,0.00030428,-0.00037276,-
 0.00030807,-0.00068838,0.00009034,-0.00028002,0.00090503,-0.00122799,-
 0.00037588,0.00293765,0.00147978,0.00458297,-0.00388181,0.03934557,-0.
 00373192,-0.06336153,-0.06153718,-0.00397960,0.00056571,-0.00006341,-0
 .00025348,-0.00012818,0.00011831,0.00007246,-0.00012290,-0.00003604,0.
 00013151,-0.00000724,0.00000561,-0.00000592,-0.00000073,-0.00000204,-0
 .00001048,-0.00001238,-0.00000245,-0.00001617,0.00001984,0.00003954,-0
 .00003470,0.00001510,0.00001159,-0.00003369,-0.00006880,0.00043678,-0.
 00059275,-0.00046322,-0.00466770,0.00097967,-0.00293360,-0.02388266,-0
 .00293333,0.06831535,0.00056068,-0.00007027,0.00070738,-0.00002786,0.0
 0003952,-0.00037564,-0.00002567,0.00006676,0.00012031,-0.00002017,-0.0
 0000796,-0.00002745,0.00003698,0.00000866,0.00033011,-0.00038614,0.000
 29329,-0.00000481,0.00063574,-0.00011760,0.00023964,-0.00176321,-0.000
 42008,-0.00482026,0.01294132,-0.02059036,0.00544249,-0.05539100,-0.294
 63082,-0.01768995,-0.00069589,0.00000874,0.00019000,0.00022605,-0.0000
 1881,-0.00003286,0.00022288,0.00006013,-0.00017971,0.00000814,-0.00000
 710,0.00000355,-0.00000139,-0.00000195,0.00000564,0.00000425,0.0000052
 5,0.00000225,-0.00004877,0.00003395,-0.00001187,0.00003728,0.00002516,
 0.00005688,-0.00048820,0.00051235,0.00007157,-0.00285395,-0.00546692,-
 0.00064669,-0.00314208,-0.00629534,-0.00173216,0.05021909,0.32657706,-
 0.00085489,0.00001506,-0.00069539,-0.00014661,0.00030400,0.00094581,0.
 00009869,-0.00006984,-0.00003425,-0.00001309,0.00001227,-0.00006108,0.
 00061653,-0.00055899,-0.00011011,-0.00076917,-0.00019443,-0.00055304,0
 .00061636,-0.00011328,0.00031877,0.00160650,0.00172729,0.00281530,-0.0
 0232549,0.01193501,0.00006135,-0.00402295,-0.02153297,-0.05432944,-0.0
 0000331,0.00006359,0.00016707,0.00001674,-0.00003705,-0.00005968,0.000
 08042,0.00000132,-0.00012770,0.00000571,-0.00000648,-0.00000244,-0.000
 01063,0.00000508,0.00000367,-0.00001390,0.00001139,-0.00000252,0.00006
 361,0.00002507,-0.00002516,0.00001643,0.00005162,-0.00001765,0.0002549
 7,0.00091144,-0.00203596,-0.00658296,-0.02983354,0.00054478,0.00466620
 ,0.01897497,0.00165506,0.00669619,0.01831855,0.05153873,-0.00026283,-0
 .00351633,0.00501496,-0.00083108,0.00031795,0.00041051,-0.00026229,-0.
 00009289,-0.00013692,0.00015872,-0.00006937,0.00012034,0.00009424,0.00
 034734,0.00008288,0.00012078,-0.00010281,0.00015534,0.00013824,0.00002
 455,-0.00023322,0.00068558,0.00018220,0.00058318,-0.00001762,-0.000494
 89,-0.00064610,-0.00019544,0.00013823,-0.00013121,-0.01515635,0.027004
 98,0.03287193,0.00193756,0.00079005,-0.00783513,-0.07339898,0.07451546
 ,0.09289602,-0.00001288,0.00003450,-0.00003760,-0.00000568,-0.00001786
 ,-0.00004170,-0.00002221,0.00000049,-0.00000887,-0.00000571,0.00006524
 ,0.00001236,-0.00001683,-0.00001950,-0.00001351,-0.00000306,-0.0000043
 5,-0.00000148,-0.00004648,0.00003275,-0.00000792,0.00005782,-0.0000170
 9,-0.00001173,0.00001674,-0.00004808,0.00000465,0.08702777,-0.00271391
 ,0.00063097,0.00054890,0.00020408,0.00026889,-0.00008612,0.00005858,-0
 .00023225,0.00008830,-0.00002774,0.00002535,-0.00002411,0.00005326,-0.
 00006532,-0.00006336,-0.00009730,0.00003397,-0.00001842,0.00000344,0.0
 0008210,0.00003846,-0.00020420,0.00023282,0.00005153,-0.00013222,-0.00
 002798,0.00021639,0.00005721,-0.00003506,0.00002192,-0.00329826,0.0210
 0303,0.01081081,-0.00007975,-0.00684702,-0.00039822,0.10520437,-0.2735
 6345,-0.22544997,0.00001783,0.00000745,0.00001449,0.00000067,-0.000008
 92,-0.00000728,-0.00000035,0.00000253,0.00000879,0.00000387,-0.0000113
 4,0.00000461,0.00001163,0.00000895,0.00000106,-0.00000121,0.00001927,0
 .00000664,0.00002954,0.00000912,0.00000002,-0.00002787,0.00000745,0.00
 001540,0.00000889,-0.00000365,-0.00001007,-0.09907056,0.25846309,0.005
 37016,0.00140271,0.00082183,0.00054707,-0.00058315,0.00049420,-0.00040
 844,0.00062127,0.00032280,-0.00019408,0.00002441,-0.00023980,-0.000221
 79,-0.00000491,0.00013842,0.00015779,-0.00001255,0.00013614,-0.0000679
 0,-0.00035517,-0.00005291,0.00022503,0.00001629,-0.00098636,-0.0001469
 7,0.00023026,-0.00012627,0.00016573,-0.00006855,0.00017472,0.01945900,
 -0.02142896,-0.02568115,-0.00822003,-0.00132345,0.00240395,0.10647954,
 -0.19280007,-0.21570381,-0.00001353,-0.00000160,-0.00005361,0.00002555
 ,0.00002992,0.00003155,-0.00000671,-0.00000402,0.00007038,0.00000208,0
 .00000288,0.00000139,0.00000026,0.00003419,-0.00000657,-0.00001698,-0.
 00005360,-0.00003187,-0.00004079,-0.00000504,-0.00002165,-0.00001901,0
 .00001585,-0.00001458,-0.00002918,0.00003305,0.00000386,-0.12304678,0.
 21423023,0.23831937\\-0.00000374,0.00000414,0.00000078,0.00000225,0.00
 000048,0.00000181,-0.00000151,-0.00000142,-0.00000129,0.00000040,0.000
 00082,-0.00000031,0.00000162,-0.00000214,-0.00000048,-0.00000241,0.000
 00099,-0.00000300,-0.00000009,0.00000182,0.00000395,0.00000279,-0.0000
 0260,-0.00000261,-0.00000061,-0.00000045,0.00000035,0.00000097,0.00000
 011,0.00000032,-0.00000038,-0.00000369,-0.00000063,0.00000073,0.000001
 10,0.00000039,0.00000075,0.00000120,0.00000056,-0.00000003,0.00000023,
 -0.00000029,-0.00000020,0.00000013,0.00000017,-0.00000003,-0.00000030,
 -0.00000004,-0.00000043,0.00000039,0.00000010,0.00000014,-0.00000028,0
 .00000038,0.00000007,-0.00000029,0.00000006,0.00000025,0.00000006,0.00
 000011,-0.00000016,-0.00000016,-0.00000022,-0.00000013,0.00000008,0.00
 000002,-0.00000026,-0.00000022,-0.00000012\\\@
 The archive entry for this job was punched.


 LET US LEARN TO DREAM, GENTLEMEN, THEN PERHAPS WE SHALL
 DISCOVER THE TRUTH;  BUT LET US BEWARE OF PUBLISHING
 OUR DREAMS ABROAD BEFORE THEY HAVE BEEN SCRUTINIZED
 BY OUR VIGILANT INTELLECT ... LET US ALWAYS ALLOW
 THE FRUIT TO HANG UNTIL IT IS RIPE.  UNRIPE FRUIT
 BRINGS EVEN THE GROWER BUT LITTLE PROFIT; IT DAMAGES
 THE HEALTH OF THOSE WHO CONSUME IT; IT ENDANGERS
 PARTICULARLY THE YOUTH WHO CANNOT YET DISTINGUISH
 BETWEEN RIPE AND UNRIPE FRUIT.

                                  -- KEKULE, 1890
 Job cpu time:       1 days  7 hours 46 minutes 25.4 seconds.
 Elapsed time:       0 days  1 hours 35 minutes 19.7 seconds.
 File lengths (MBytes):  RWF=    944 Int=      0 D2E=      0 Chk=     54 Scr=      1
 Normal termination of Gaussian 16 at Wed Mar  5 01:15:50 2025.
