 Entering Gaussian System, Link 0=g16
 Initial command:
 /usr/local/gaussian16c01/g16/l1.exe "/scr/dhuang/Gau-416263.inp" -scrdir="/scr/dhuang/"
 Entering Link 1 = /usr/local/gaussian16c01/g16/l1.exe PID=    416264.
  
 Copyright (c) 1988-2019, Gaussian, Inc.  All Rights Reserved.
  
 This is part of the Gaussian(R) 16 program.  It is based on
 the Gaussian(R) 09 system (copyright 2009, Gaussian, Inc.),
 the Gaussian(R) 03 system (copyright 2003, Gaussian, Inc.),
 the Gaussian(R) 98 system (copyright 1998, Gaussian, Inc.),
 the Gaussian(R) 94 system (copyright 1995, Gaussian, Inc.),
 the Gaussian 92(TM) system (copyright 1992, Gaussian, Inc.),
 the Gaussian 90(TM) system (copyright 1990, Gaussian, Inc.),
 the Gaussian 88(TM) system (copyright 1988, Gaussian, Inc.),
 the Gaussian 86(TM) system (copyright 1986, Carnegie Mellon
 University), and the Gaussian 82(TM) system (copyright 1983,
 Carnegie Mellon University). Gaussian is a federally registered
 trademark of Gaussian, Inc.
  
 This software contains proprietary and confidential information,
 including trade secrets, belonging to Gaussian, Inc.
  
 This software is provided under written license and may be
 used, copied, transmitted, or stored only in accord with that
 written license.
  
 The following legend is applicable only to US Government
 contracts under FAR:
  
                    RESTRICTED RIGHTS LEGEND
  
 Use, reproduction and disclosure by the US Government is
 subject to restrictions as set forth in subparagraphs (a)
 and (c) of the Commercial Computer Software - Restricted
 Rights clause in FAR 52.227-19.
  
 Gaussian, Inc.
 340 Quinnipiac St., Bldg. 40, Wallingford CT 06492
  
  
 ---------------------------------------------------------------
 Warning -- This program may not be used in any manner that
 competes with the business of Gaussian, Inc. or will provide
 assistance to any competitor of Gaussian, Inc.  The licensee
 of this program is prohibited from giving any competitor of
 Gaussian, Inc. access to this program.  By using this program,
 the user acknowledges that Gaussian, Inc. is engaged in the
 business of creating and licensing software in the field of
 computational chemistry and represents and warrants to the
 licensee that it is not a competitor of Gaussian, Inc. and that
 it will not use this program in any manner prohibited above.
 ---------------------------------------------------------------
  

 Cite this work as:
 Gaussian 16, Revision C.01,
 M. J. Frisch, G. W. Trucks, H. B. Schlegel, G. E. Scuseria, 
 M. A. Robb, J. R. Cheeseman, G. Scalmani, V. Barone, 
 G. A. Petersson, H. Nakatsuji, X. Li, M. Caricato, A. V. Marenich, 
 J. Bloino, B. G. Janesko, R. Gomperts, B. Mennucci, H. P. Hratchian, 
 J. V. Ortiz, A. F. Izmaylov, J. L. Sonnenberg, D. Williams-Young, 
 F. Ding, F. Lipparini, F. Egidi, J. Goings, B. Peng, A. Petrone, 
 T. Henderson, D. Ranasinghe, V. G. Zakrzewski, J. Gao, N. Rega, 
 G. Zheng, W. Liang, M. Hada, M. Ehara, K. Toyota, R. Fukuda, 
 J. Hasegawa, M. Ishida, T. Nakajima, Y. Honda, O. Kitao, H. Nakai, 
 T. Vreven, K. Throssell, J. A. Montgomery, Jr., J. E. Peralta, 
 F. Ogliaro, M. J. Bearpark, J. J. Heyd, E. N. Brothers, K. N. Kudin, 
 V. N. Staroverov, T. A. Keith, R. Kobayashi, J. Normand, 
 K. Raghavachari, A. P. Rendell, J. C. Burant, S. S. Iyengar, 
 J. Tomasi, M. Cossi, J. M. Millam, M. Klene, C. Adamo, R. Cammi, 
 J. W. Ochterski, R. L. Martin, K. Morokuma, O. Farkas, 
 J. B. Foresman, and D. J. Fox, Gaussian, Inc., Wallingford CT, 2019.
 
 ******************************************
 Gaussian 16:  ES64L-G16RevC.01  3-Jul-2019
                 4-Mar-2025 
 ******************************************
 %nprocshared=20
 Will use up to   20 processors via shared memory.
 %mem=10000MW
 %chk=2.chk
 ------------------------------------
 # opt freq m062x/aug-cc-pvtz pop=nbo
 ------------------------------------
 1/18=20,19=15,26=3,38=1/1,3;
 2/9=110,12=2,17=6,18=5,40=1/2;
 3/5=16,6=1,7=10,11=2,25=1,30=1,71=1,74=-55/1,2,3;
 4//1;
 5/5=2,38=5/2;
 6/7=2,8=2,9=2,10=2,28=1,40=1/1,7;
 7//1,2,3,16;
 1/18=20,19=15,26=3/3(2);
 2/9=110/2;
 99//99;
 2/9=110/2;
 3/5=16,6=1,7=10,11=2,25=1,30=1,71=1,74=-55/1,2,3;
 4/5=5,16=3,69=1/1;
 5/5=2,38=5/2;
 7//1,2,3,16;
 1/18=20,19=15,26=3/3(-5);
 2/9=110/2;
 6/7=2,8=2,9=2,10=2,19=2,28=1,40=1/1,7;
 99/9=1/99;
 -
 2
 -
 Symbolic Z-matrix:
 Charge =  0 Multiplicity = 1
 C                     0.51321  -0.65619  -4.16988 
 N                    -0.6552   -1.28031  -3.58654 
 N                    -1.79886  -0.57461  -3.77295 
 N                    -2.36969  -0.2473   -2.70535 
 C                    -1.65395  -0.69096  -1.7596 
 N                    -0.64449  -1.2924   -2.23145 
 C                    -1.9701   -0.5098   -0.445 
 O                    -1.24597  -0.94868   0.42985 
 O                    -3.0991    0.1664   -0.1093 
 H                     0.41785  -0.61596  -5.27959 
 H                     0.65717   0.38261  -3.79198 
 H                     1.42778  -1.24659  -3.93085 
 H                    -3.19222   0.21588   0.85537 
 

 GradGradGradGradGradGradGradGradGradGradGradGradGradGradGradGradGradGrad
 Berny optimization.
 Initialization pass.
                           ----------------------------
                           !    Initial Parameters    !
                           ! (Angstroms and Degrees)  !
 --------------------------                            --------------------------
 ! Name  Definition              Value          Derivative Info.                !
 --------------------------------------------------------------------------------
 ! R1    R(1,2)                  1.4474         estimate D2E/DX2                !
 ! R2    R(1,10)                 1.1145         estimate D2E/DX2                !
 ! R3    R(1,11)                 1.1147         estimate D2E/DX2                !
 ! R4    R(1,12)                 1.1145         estimate D2E/DX2                !
 ! R5    R(2,3)                  1.3567         estimate D2E/DX2                !
 ! R6    R(2,6)                  1.3552         estimate D2E/DX2                !
 ! R7    R(3,4)                  1.2541         estimate D2E/DX2                !
 ! R8    R(4,5)                  1.2663         estimate D2E/DX2                !
 ! R9    R(5,6)                  1.2662         estimate D2E/DX2                !
 ! R10   R(5,7)                  1.3642         estimate D2E/DX2                !
 ! R11   R(7,8)                  1.2175         estimate D2E/DX2                !
 ! R12   R(7,9)                  1.3582         estimate D2E/DX2                !
 ! R13   R(9,13)                 0.9704         estimate D2E/DX2                !
 ! A1    A(2,1,10)             110.351          estimate D2E/DX2                !
 ! A2    A(2,1,11)             111.6817         estimate D2E/DX2                !
 ! A3    A(2,1,12)             110.3381         estimate D2E/DX2                !
 ! A4    A(10,1,11)            108.3585         estimate D2E/DX2                !
 ! A5    A(10,1,12)            107.6304         estimate D2E/DX2                !
 ! A6    A(11,1,12)            108.3591         estimate D2E/DX2                !
 ! A7    A(1,2,3)              113.6285         estimate D2E/DX2                !
 ! A8    A(1,2,6)              113.6071         estimate D2E/DX2                !
 ! A9    A(3,2,6)               98.5505         estimate D2E/DX2                !
 ! A10   A(2,3,4)              113.7336         estimate D2E/DX2                !
 ! A11   A(3,4,5)              106.6829         estimate D2E/DX2                !
 ! A12   A(4,5,6)              109.7977         estimate D2E/DX2                !
 ! A13   A(4,5,7)              122.8333         estimate D2E/DX2                !
 ! A14   A(6,5,7)              127.3678         estimate D2E/DX2                !
 ! A15   A(2,6,5)              111.2277         estimate D2E/DX2                !
 ! A16   A(5,7,8)              120.4468         estimate D2E/DX2                !
 ! A17   A(5,7,9)              119.7993         estimate D2E/DX2                !
 ! A18   A(8,7,9)              119.7538         estimate D2E/DX2                !
 ! A19   A(7,9,13)             110.5401         estimate D2E/DX2                !
 ! D1    D(10,1,2,3)           -64.7003         estimate D2E/DX2                !
 ! D2    D(10,1,2,6)          -176.3113         estimate D2E/DX2                !
 ! D3    D(11,1,2,3)            55.8954         estimate D2E/DX2                !
 ! D4    D(11,1,2,6)           -55.7156         estimate D2E/DX2                !
 ! D5    D(12,1,2,3)           176.4832         estimate D2E/DX2                !
 ! D6    D(12,1,2,6)            64.8721         estimate D2E/DX2                !
 ! D7    D(1,2,3,4)           -121.3765         estimate D2E/DX2                !
 ! D8    D(6,2,3,4)             -0.8593         estimate D2E/DX2                !
 ! D9    D(1,2,6,5)            121.3129         estimate D2E/DX2                !
 ! D10   D(3,2,6,5)              0.7798         estimate D2E/DX2                !
 ! D11   D(2,3,4,5)              0.6361         estimate D2E/DX2                !
 ! D12   D(3,4,5,6)             -0.0831         estimate D2E/DX2                !
 ! D13   D(3,4,5,7)            179.5536         estimate D2E/DX2                !
 ! D14   D(4,5,6,2)             -0.4886         estimate D2E/DX2                !
 ! D15   D(7,5,6,2)            179.8956         estimate D2E/DX2                !
 ! D16   D(4,5,7,8)           -179.5672         estimate D2E/DX2                !
 ! D17   D(4,5,7,9)              0.3323         estimate D2E/DX2                !
 ! D18   D(6,5,7,8)              0.0026         estimate D2E/DX2                !
 ! D19   D(6,5,7,9)            179.9021         estimate D2E/DX2                !
 ! D20   D(5,7,9,13)          -180.0            estimate D2E/DX2                !
 ! D21   D(8,7,9,13)            -0.0998         estimate D2E/DX2                !
 --------------------------------------------------------------------------------
 Trust Radius=3.00D-01 FncErr=1.00D-07 GrdErr=1.00D-06 EigMax=2.50D+02 EigMin=1.00D-04
 Number of steps in this run=     63 maximum allowed number of steps=    100.
 GradGradGradGradGradGradGradGradGradGradGradGradGradGradGradGradGradGrad

                          Input orientation:                          
 ---------------------------------------------------------------------
 Center     Atomic      Atomic             Coordinates (Angstroms)
 Number     Number       Type             X           Y           Z
 ---------------------------------------------------------------------
      1          6           0        0.513211   -0.656189   -4.169880
      2          7           0       -0.655199   -1.280315   -3.586545
      3          7           0       -1.798858   -0.574611   -3.772950
      4          7           0       -2.369692   -0.247303   -2.705350
      5          6           0       -1.653950   -0.690962   -1.759601
      6          7           0       -0.644495   -1.292404   -2.231449
      7          6           0       -1.970100   -0.509800   -0.445000
      8          8           0       -1.245969   -0.948676    0.429849
      9          8           0       -3.099100    0.166400   -0.109300
     10          1           0        0.417848   -0.615965   -5.279592
     11          1           0        0.657171    0.382606   -3.791976
     12          1           0        1.427780   -1.246593   -3.930850
     13          1           0       -3.192217    0.215883    0.855370
 ---------------------------------------------------------------------
                    Distance matrix (angstroms):
                    1          2          3          4          5
     1  C    0.000000
     2  N    1.447410   0.000000
     3  N    2.347312   1.356732   0.000000
     4  N    3.259320   2.187031   1.254093   0.000000
     5  C    3.241488   2.163923   2.021907   1.266318   0.000000
     6  N    2.345756   1.355192   2.055239   2.071985   1.266243
     7  C    4.479174   3.491699   3.332983   2.310360   1.364165
     8  O    4.933333   4.073133   4.255482   3.403550   2.241999
     9  O    5.496704   4.489640   3.957532   2.728125   2.355212
    10  H    1.114528   2.111682   2.680572   3.812218   4.085132
    11  H    1.114733   2.128338   2.636040   3.277109   3.259506
    12  H    1.114517   2.111512   3.299650   4.113542   3.810526
    13  H    6.304272   5.329697   4.897721   3.683723   3.166498
                    6          7          8          9         10
     6  N    0.000000
     7  C    2.358198   0.000000
     8  O    2.749986   1.217513   0.000000
     9  O    3.557627   1.358154   2.228940   0.000000
    10  H    3.298078   5.393222   5.956232   6.301820   0.000000
    11  H    2.633484   4.347550   4.818513   5.264829   1.807600
    12  H    2.680371   4.923374   5.123806   6.090439   1.799100
    13  H    4.277180   1.926434   2.307628   0.970416   7.166749
                   11         12         13
    11  H    0.000000
    12  H    1.807599   0.000000
    13  H    6.036838   6.811102   0.000000
 Stoichiometry    C3H4N4O2
 Framework group  C1[X(C3H4N4O2)]
 Deg. of freedom    33
 Full point group                 C1      NOp   1
 Largest Abelian subgroup         C1      NOp   1
 Largest concise Abelian subgroup C1      NOp   1
                         Standard orientation:                         
 ---------------------------------------------------------------------
 Center     Atomic      Atomic             Coordinates (Angstroms)
 Number     Number       Type             X           Y           Z
 ---------------------------------------------------------------------
      1          6           0       -2.767073    0.566635    0.516148
      2          7           0       -1.784990    0.097248   -0.437888
      3          7           0       -1.347424   -1.163280   -0.192274
      4          7           0       -0.108316   -1.242029   -0.015747
      5          6           0        0.348698   -0.065333   -0.116171
      6          7           0       -0.596322    0.742838   -0.355267
      7          6           0        1.672767    0.228837    0.029615
      8          8           0        2.063938    1.377651   -0.068117
      9          8           0        2.560763   -0.765907    0.287550
     10          1           0       -3.697446   -0.043052    0.446437
     11          1           0       -2.386164    0.507598    1.562118
     12          1           0       -3.040513    1.625527    0.301375
     13          1           0        3.459530   -0.408302    0.365290
 ---------------------------------------------------------------------
 Rotational constants (GHZ):           4.6756196           1.1794177           0.9878180
 Standard basis: Aug-CC-pVTZ (5D, 7F)
 There are   595 symmetry adapted cartesian basis functions of A   symmetry.
 There are   506 symmetry adapted basis functions of A   symmetry.
   506 basis functions,   756 primitive gaussians,   595 cartesian basis functions
    33 alpha electrons       33 beta electrons
       nuclear repulsion energy       450.7587340008 Hartrees.
 NAtoms=   13 NActive=   13 NUniq=   13 SFac= 1.00D+00 NAtFMM=   60 NAOKFM=F Big=F
 Integral buffers will be    131072 words long.
 Raffenetti 2 integral format.
 Two-electron integral symmetry is turned on.
 One-electron integrals computed using PRISM.
 NBasis=   506 RedAO= T EigKep=  3.38D-06  NBF=   506
 NBsUse=   506 1.00D-06 EigRej= -1.00D+00 NBFU=   506
 ExpMin= 2.53D-02 ExpMax= 1.53D+04 ExpMxC= 5.22D+02 IAcc=3 IRadAn=         5 AccDes= 0.00D+00
 Harris functional with IExCor= 1009 and IRadAn=       5 diagonalized for initial guess.
 HarFok:  IExCor= 1009 AccDes= 0.00D+00 IRadAn=         5 IDoV= 1 UseB2=F ITyADJ=14
 ICtDFT=  3500011 ScaDFX=  1.000000  1.000000  1.000000  1.000000
 FoFCou: FMM=F IPFlag=           0 FMFlag=      100000 FMFlg1=           0
         NFxFlg=           0 DoJE=T BraDBF=F KetDBF=T FulRan=T
         wScrn=  0.000000 ICntrl=       500 IOpCl=  0 I1Cent=   200000004 NGrid=           0
         NMat0=    1 NMatS0=      1 NMatT0=    0 NMatD0=    1 NMtDS0=    0 NMtDT0=    0
 Petite list used in FoFCou.
 Requested convergence on RMS density matrix=1.00D-08 within 128 cycles.
 Requested convergence on MAX density matrix=1.00D-06.
 Requested convergence on             energy=1.00D-06.
 No special actions if energy rises.
 SCF Done:  E(RM062X) =  -486.067363802     A.U. after   14 cycles
            NFock= 14  Conv=0.72D-08     -V/T= 2.0038

 **********************************************************************

            Population analysis using the SCF Density.

 **********************************************************************

 Orbital symmetries:
       Occupied  (A) (A) (A) (A) (A) (A) (A) (A) (A) (A) (A) (A)
                 (A) (A) (A) (A) (A) (A) (A) (A) (A) (A) (A) (A)
                 (A) (A) (A) (A) (A) (A) (A) (A) (A)
       Virtual   (A) (A) (A) (A) (A) (A) (A) (A) (A) (A) (A) (A)
                 (A) (A) (A) (A) (A) (A) (A) (A) (A) (A) (A) (A)
                 (A) (A) (A) (A) (A) (A) (A) (A) (A) (A) (A) (A)
                 (A) (A) (A) (A) (A) (A) (A) (A) (A) (A) (A) (A)
                 (A) (A) (A) (A) (A) (A) (A) (A) (A) (A) (A) (A)
                 (A) (A) (A) (A) (A) (A) (A) (A) (A) (A) (A) (A)
                 (A) (A) (A) (A) (A) (A) (A) (A) (A) (A) (A) (A)
                 (A) (A) (A) (A) (A) (A) (A) (A) (A) (A) (A) (A)
                 (A) (A) (A) (A) (A) (A) (A) (A) (A) (A) (A) (A)
                 (A) (A) (A) (A) (A) (A) (A) (A) (A) (A) (A) (A)
                 (A) (A) (A) (A) (A) (A) (A) (A) (A) (A) (A) (A)
                 (A) (A) (A) (A) (A) (A) (A) (A) (A) (A) (A) (A)
                 (A) (A) (A) (A) (A) (A) (A) (A) (A) (A) (A) (A)
                 (A) (A) (A) (A) (A) (A) (A) (A) (A) (A) (A) (A)
                 (A) (A) (A) (A) (A) (A) (A) (A) (A) (A) (A) (A)
                 (A) (A) (A) (A) (A) (A) (A) (A) (A) (A) (A) (A)
                 (A) (A) (A) (A) (A) (A) (A) (A) (A) (A) (A) (A)
                 (A) (A) (A) (A) (A) (A) (A) (A) (A) (A) (A) (A)
                 (A) (A) (A) (A) (A) (A) (A) (A) (A) (A) (A) (A)
                 (A) (A) (A) (A) (A) (A) (A) (A) (A) (A) (A) (A)
                 (A) (A) (A) (A) (A) (A) (A) (A) (A) (A) (A) (A)
                 (A) (A) (A) (A) (A) (A) (A) (A) (A) (A) (A) (A)
                 (A) (A) (A) (A) (A) (A) (A) (A) (A) (A) (A) (A)
                 (A) (A) (A) (A) (A) (A) (A) (A) (A) (A) (A) (A)
                 (A) (A) (A) (A) (A) (A) (A) (A) (A) (A) (A) (A)
                 (A) (A) (A) (A) (A) (A) (A) (A) (A) (A) (A) (A)
                 (A) (A) (A) (A) (A) (A) (A) (A) (A) (A) (A) (A)
                 (A) (A) (A) (A) (A) (A) (A) (A) (A) (A) (A) (A)
                 (A) (A) (A) (A) (A) (A) (A) (A) (A) (A) (A) (A)
                 (A) (A) (A) (A) (A) (A) (A) (A) (A) (A) (A) (A)
                 (A) (A) (A) (A) (A) (A) (A) (A) (A) (A) (A) (A)
                 (A) (A) (A) (A) (A) (A) (A) (A) (A) (A) (A) (A)
                 (A) (A) (A) (A) (A) (A) (A) (A) (A) (A) (A) (A)
                 (A) (A) (A) (A) (A) (A) (A) (A) (A) (A) (A) (A)
                 (A) (A) (A) (A) (A) (A) (A) (A) (A) (A) (A) (A)
                 (A) (A) (A) (A) (A) (A) (A) (A) (A) (A) (A) (A)
                 (A) (A) (A) (A) (A) (A) (A) (A) (A) (A) (A) (A)
                 (A) (A) (A) (A) (A) (A) (A) (A) (A) (A) (A) (A)
                 (A) (A) (A) (A) (A) (A) (A) (A) (A) (A) (A) (A)
                 (A) (A) (A) (A) (A)
 The electronic state is 1-A.
 Alpha  occ. eigenvalues --  -19.68983 -19.63380 -14.89524 -14.84661 -14.81414
 Alpha  occ. eigenvalues --  -14.81131 -10.69994 -10.62557 -10.62350  -1.31887
 Alpha  occ. eigenvalues --   -1.25276  -1.15486  -1.10878  -1.03666  -0.89532
 Alpha  occ. eigenvalues --   -0.82318  -0.76769  -0.72380  -0.66468  -0.63839
 Alpha  occ. eigenvalues --   -0.59750  -0.58817  -0.56042  -0.52081  -0.51046
 Alpha  occ. eigenvalues --   -0.50585  -0.48678  -0.42172  -0.41428  -0.39145
 Alpha  occ. eigenvalues --   -0.38559  -0.38178  -0.36548
 Alpha virt. eigenvalues --   -0.06521  -0.01132  -0.00509  -0.00073   0.01273
 Alpha virt. eigenvalues --    0.01768   0.02557   0.04071   0.04316   0.06112
 Alpha virt. eigenvalues --    0.06279   0.06547   0.07208   0.07431   0.08033
 Alpha virt. eigenvalues --    0.08627   0.09851   0.09875   0.10650   0.10912
 Alpha virt. eigenvalues --    0.11495   0.12841   0.13293   0.13554   0.14013
 Alpha virt. eigenvalues --    0.14390   0.15963   0.16363   0.16641   0.17030
 Alpha virt. eigenvalues --    0.17436   0.18009   0.18238   0.18884   0.19915
 Alpha virt. eigenvalues --    0.20118   0.21220   0.21403   0.22014   0.22556
 Alpha virt. eigenvalues --    0.22841   0.23715   0.24654   0.25558   0.25961
 Alpha virt. eigenvalues --    0.26388   0.27163   0.27443   0.28226   0.29175
 Alpha virt. eigenvalues --    0.29978   0.30342   0.30484   0.30904   0.31638
 Alpha virt. eigenvalues --    0.31998   0.32513   0.32905   0.33993   0.34469
 Alpha virt. eigenvalues --    0.35061   0.35326   0.36439   0.36710   0.37079
 Alpha virt. eigenvalues --    0.37430   0.38619   0.40080   0.40649   0.41506
 Alpha virt. eigenvalues --    0.42579   0.43499   0.43658   0.44330   0.45576
 Alpha virt. eigenvalues --    0.46547   0.47265   0.48236   0.49023   0.49450
 Alpha virt. eigenvalues --    0.51302   0.51936   0.52659   0.53013   0.53519
 Alpha virt. eigenvalues --    0.54551   0.55050   0.55479   0.57176   0.59223
 Alpha virt. eigenvalues --    0.59954   0.60297   0.61087   0.61430   0.62651
 Alpha virt. eigenvalues --    0.63502   0.64055   0.65073   0.66441   0.67315
 Alpha virt. eigenvalues --    0.67576   0.68053   0.68642   0.69765   0.70174
 Alpha virt. eigenvalues --    0.70695   0.71722   0.72000   0.73188   0.73779
 Alpha virt. eigenvalues --    0.74881   0.75129   0.76005   0.76212   0.76934
 Alpha virt. eigenvalues --    0.77433   0.78204   0.79324   0.79874   0.80949
 Alpha virt. eigenvalues --    0.81925   0.83551   0.84106   0.85603   0.86310
 Alpha virt. eigenvalues --    0.87081   0.87609   0.88534   0.89551   0.90613
 Alpha virt. eigenvalues --    0.90914   0.91764   0.92954   0.94423   0.94577
 Alpha virt. eigenvalues --    0.96537   0.97183   0.98067   0.98934   1.00132
 Alpha virt. eigenvalues --    1.00738   1.00800   1.02226   1.03858   1.05216
 Alpha virt. eigenvalues --    1.05406   1.06251   1.07247   1.07621   1.08220
 Alpha virt. eigenvalues --    1.08574   1.09761   1.10911   1.12002   1.12475
 Alpha virt. eigenvalues --    1.13488   1.14058   1.15942   1.17179   1.18405
 Alpha virt. eigenvalues --    1.19069   1.19962   1.21410   1.22132   1.23072
 Alpha virt. eigenvalues --    1.24264   1.24937   1.25034   1.26363   1.28155
 Alpha virt. eigenvalues --    1.29118   1.29936   1.31197   1.31870   1.34092
 Alpha virt. eigenvalues --    1.35549   1.36348   1.36534   1.37040   1.39039
 Alpha virt. eigenvalues --    1.40196   1.41008   1.42448   1.42962   1.43056
 Alpha virt. eigenvalues --    1.44974   1.46737   1.48860   1.49087   1.50995
 Alpha virt. eigenvalues --    1.51692   1.52595   1.53377   1.54650   1.56156
 Alpha virt. eigenvalues --    1.57279   1.59024   1.59990   1.60261   1.60793
 Alpha virt. eigenvalues --    1.62616   1.64219   1.65275   1.67747   1.68211
 Alpha virt. eigenvalues --    1.68766   1.70261   1.71636   1.74359   1.76114
 Alpha virt. eigenvalues --    1.77021   1.78633   1.79360   1.82105   1.82913
 Alpha virt. eigenvalues --    1.84310   1.85705   1.86907   1.88538   1.89558
 Alpha virt. eigenvalues --    1.90212   1.91625   1.92469   1.93008   1.94663
 Alpha virt. eigenvalues --    1.96291   1.96772   1.99333   2.00299   2.01789
 Alpha virt. eigenvalues --    2.03898   2.04336   2.05541   2.05807   2.08015
 Alpha virt. eigenvalues --    2.09726   2.11011   2.11795   2.12420   2.14875
 Alpha virt. eigenvalues --    2.16694   2.18538   2.18747   2.19726   2.21509
 Alpha virt. eigenvalues --    2.21897   2.23679   2.26414   2.26871   2.29302
 Alpha virt. eigenvalues --    2.30749   2.31220   2.33457   2.34648   2.34884
 Alpha virt. eigenvalues --    2.35930   2.37673   2.38790   2.40708   2.41401
 Alpha virt. eigenvalues --    2.43297   2.44564   2.45648   2.48081   2.49961
 Alpha virt. eigenvalues --    2.51854   2.53075   2.55092   2.56111   2.59935
 Alpha virt. eigenvalues --    2.61662   2.64298   2.65668   2.66779   2.68289
 Alpha virt. eigenvalues --    2.72208   2.74646   2.76260   2.76960   2.77612
 Alpha virt. eigenvalues --    2.78283   2.85139   2.87304   2.89220   2.90866
 Alpha virt. eigenvalues --    2.93410   2.96562   3.01177   3.02489   3.07000
 Alpha virt. eigenvalues --    3.08086   3.09119   3.10704   3.11015   3.13352
 Alpha virt. eigenvalues --    3.14984   3.17583   3.18723   3.23240   3.24678
 Alpha virt. eigenvalues --    3.28325   3.30308   3.31394   3.33650   3.37448
 Alpha virt. eigenvalues --    3.38858   3.41467   3.43301   3.44339   3.46441
 Alpha virt. eigenvalues --    3.48529   3.49347   3.50840   3.53022   3.53319
 Alpha virt. eigenvalues --    3.54952   3.56015   3.59224   3.61237   3.62805
 Alpha virt. eigenvalues --    3.64121   3.67365   3.68494   3.69276   3.71035
 Alpha virt. eigenvalues --    3.72249   3.74322   3.76710   3.78399   3.79551
 Alpha virt. eigenvalues --    3.81481   3.85803   3.87396   3.89145   3.90495
 Alpha virt. eigenvalues --    3.92759   3.93688   3.96173   3.98502   4.02209
 Alpha virt. eigenvalues --    4.07007   4.07823   4.08766   4.09939   4.13983
 Alpha virt. eigenvalues --    4.14666   4.17322   4.18981   4.20870   4.22455
 Alpha virt. eigenvalues --    4.23360   4.26203   4.28538   4.33000   4.35361
 Alpha virt. eigenvalues --    4.37269   4.37704   4.39324   4.42614   4.43721
 Alpha virt. eigenvalues --    4.44448   4.46239   4.46454   4.50981   4.51830
 Alpha virt. eigenvalues --    4.54377   4.56371   4.57600   4.59727   4.62602
 Alpha virt. eigenvalues --    4.65035   4.65638   4.67763   4.68688   4.70768
 Alpha virt. eigenvalues --    4.71218   4.74027   4.76916   4.77293   4.78084
 Alpha virt. eigenvalues --    4.84563   4.89069   4.90669   4.95892   4.99923
 Alpha virt. eigenvalues --    5.00138   5.01696   5.02563   5.05356   5.07074
 Alpha virt. eigenvalues --    5.10307   5.12408   5.12978   5.16393   5.18010
 Alpha virt. eigenvalues --    5.20061   5.22800   5.23388   5.29100   5.29348
 Alpha virt. eigenvalues --    5.34551   5.35066   5.37223   5.41079   5.42136
 Alpha virt. eigenvalues --    5.44553   5.45243   5.49629   5.51531   5.53371
 Alpha virt. eigenvalues --    5.56743   5.58060   5.61028   5.64007   5.64491
 Alpha virt. eigenvalues --    5.65990   5.67079   5.74935   5.77164   5.80101
 Alpha virt. eigenvalues --    5.85768   5.90471   5.93881   5.96161   5.99328
 Alpha virt. eigenvalues --    6.05751   6.09689   6.11538   6.19286   6.19780
 Alpha virt. eigenvalues --    6.24613   6.24921   6.27542   6.30225   6.35359
 Alpha virt. eigenvalues --    6.35793   6.37095   6.41613   6.50722   6.53462
 Alpha virt. eigenvalues --    6.54585   6.59558   6.60150   6.68342   6.72095
 Alpha virt. eigenvalues --    6.73358   6.76691   6.80140   6.81788   6.83535
 Alpha virt. eigenvalues --    6.86609   6.90572   7.04988   7.06320   7.09833
 Alpha virt. eigenvalues --    7.13339   7.16737   7.28674   7.33904   7.45091
 Alpha virt. eigenvalues --    7.50056   7.59871   7.79158   8.03307  14.63637
 Alpha virt. eigenvalues --   14.79448  15.80891  15.93713  17.06273  17.34961
 Alpha virt. eigenvalues --   18.61246  18.72033  19.02853
          Condensed to atoms (all electrons):
               1          2          3          4          5          6
     1  C    5.746547   0.155932  -0.101415   0.013003   0.006633  -0.061769
     2  N    0.155932   7.828853  -0.720122   0.251819  -0.203619  -0.719968
     3  N   -0.101415  -0.720122   9.318936  -1.221972   0.036462   0.159944
     4  N    0.013003   0.251819  -1.221972   8.758841  -0.005151  -0.234612
     5  C    0.006633  -0.203619   0.036462  -0.005151   6.114067   0.031370
     6  N   -0.061769  -0.719968   0.159944  -0.234612   0.031370   8.469016
     7  C   -0.006047   0.039499  -0.030102  -0.167152  -0.814946  -0.024572
     8  O   -0.001158   0.008265  -0.002229  -0.007892   0.125683  -0.198472
     9  O    0.000218   0.004950  -0.009662  -0.125572   0.206375  -0.016792
    10  H    0.354996  -0.033722  -0.006120   0.004629  -0.002568   0.008933
    11  H    0.360247  -0.004396  -0.020181   0.008121  -0.010054  -0.020475
    12  H    0.346454  -0.026509   0.020025  -0.008480   0.011630  -0.004873
    13  H   -0.000157  -0.001317   0.000231   0.009683  -0.085584   0.014838
               7          8          9         10         11         12
     1  C   -0.006047  -0.001158   0.000218   0.354996   0.360247   0.346454
     2  N    0.039499   0.008265   0.004950  -0.033722  -0.004396  -0.026509
     3  N   -0.030102  -0.002229  -0.009662  -0.006120  -0.020181   0.020025
     4  N   -0.167152  -0.007892  -0.125572   0.004629   0.008121  -0.008480
     5  C   -0.814946   0.125683   0.206375  -0.002568  -0.010054   0.011630
     6  N   -0.024572  -0.198472  -0.016792   0.008933  -0.020475  -0.004873
     7  C    6.090750   0.087788  -0.091033  -0.000559   0.000170  -0.001665
     8  O    0.087788   8.922488  -0.051153  -0.000124   0.000191   0.000101
     9  O   -0.091033  -0.051153   8.442978   0.000023   0.000221   0.000084
    10  H   -0.000559  -0.000124   0.000023   0.304265   0.005185  -0.000002
    11  H    0.000170   0.000191   0.000221   0.005185   0.299045   0.007233
    12  H   -0.001665   0.000101   0.000084  -0.000002   0.007233   0.290404
    13  H    0.106523  -0.085821   0.150531   0.000004  -0.000068  -0.000007
              13
     1  C   -0.000157
     2  N   -0.001317
     3  N    0.000231
     4  N    0.009683
     5  C   -0.085584
     6  N    0.014838
     7  C    0.106523
     8  O   -0.085821
     9  O    0.150531
    10  H    0.000004
    11  H   -0.000068
    12  H   -0.000007
    13  H    0.594006
 Mulliken charges:
               1
     1  C   -0.813484
     2  N    0.420336
     3  N   -0.423793
     4  N   -0.275265
     5  C    0.589703
     6  N   -0.402568
     7  C    0.811345
     8  O   -0.797667
     9  O   -0.511170
    10  H    0.365060
    11  H    0.374761
    12  H    0.365605
    13  H    0.297138
 Sum of Mulliken charges =   0.00000
 Mulliken charges with hydrogens summed into heavy atoms:
               1
     1  C    0.291941
     2  N    0.420336
     3  N   -0.423793
     4  N   -0.275265
     5  C    0.589703
     6  N   -0.402568
     7  C    0.811345
     8  O   -0.797667
     9  O   -0.214031
 Electronic spatial extent (au):  <R**2>=           1127.8908
 Charge=              0.0000 electrons
 Dipole moment (field-independent basis, Debye):
    X=             -1.8123    Y=              0.3403    Z=              1.2937  Tot=              2.2526
 Quadrupole moment (field-independent basis, Debye-Ang):
   XX=            -35.6208   YY=            -61.8946   ZZ=            -49.1672
   XY=             -7.1272   XZ=             -1.6639   YZ=              1.6988
 Traceless Quadrupole moment (field-independent basis, Debye-Ang):
   XX=             13.2734   YY=            -13.0004   ZZ=             -0.2730
   XY=             -7.1272   XZ=             -1.6639   YZ=              1.6988
 Octapole moment (field-independent basis, Debye-Ang**2):
  XXX=             16.3669  YYY=              4.3574  ZZZ=              2.0518  XYY=             -6.2961
  XXY=              1.3151  XXZ=             12.1452  XZZ=              3.3881  YZZ=              0.3646
  YYZ=              0.9933  XYZ=             -0.2998
 Hexadecapole moment (field-independent basis, Debye-Ang**3):
 XXXX=           -779.9887 YYYY=           -303.9910 ZZZZ=            -78.6106 XXXY=            -56.1740
 XXXZ=              5.9879 YYYX=            -21.2891 YYYZ=              1.6911 ZZZX=             -1.4352
 ZZZY=              1.2759 XXYY=           -245.9859 XXZZ=           -185.8157 YYZZ=            -61.1678
 XXYZ=              2.5270 YYXZ=             -0.6643 ZZXY=             -0.2709
 N-N= 4.507587340008D+02 E-N=-2.038632056663D+03  KE= 4.842417479507D+02
 ******************************Gaussian NBO Version 3.1******************************
             N A T U R A L   A T O M I C   O R B I T A L   A N D
          N A T U R A L   B O N D   O R B I T A L   A N A L Y S I S
 ******************************Gaussian NBO Version 3.1******************************
       /RESON  / : Allow strongly delocalized NBO set

 Analyzing the SCF density

 Job title: 2                                                               

 Storage needed:    770252 in NPA,   1025877 in NBO (********** available)
 GSVD:  LWork=        -284 too small for GESVD, short by      509720 words or      509720 for optimal perf.


 NATURAL POPULATIONS:  Natural atomic orbital occupancies 
                                                          
   NAO  Atom  No  lang   Type(AO)    Occupancy      Energy
 ----------------------------------------------------------
     1    C    1  S      Cor( 1S)     1.99938     -10.49620
     2    C    1  S      Val( 2S)     1.10660      -0.36819
     3    C    1  S      Ryd( 4S)     0.00196       1.08461
     4    C    1  S      Ryd( 3S)     0.00007       0.93447
     5    C    1  S      Ryd( 5S)     0.00002       6.49770
     6    C    1  px     Val( 2p)     1.04465      -0.15892
     7    C    1  px     Ryd( 3p)     0.00238       1.09939
     8    C    1  px     Ryd( 4p)     0.00007       1.33335
     9    C    1  px     Ryd( 5p)     0.00002       1.61199
    10    C    1  py     Val( 2p)     1.19264      -0.17665
    11    C    1  py     Ryd( 3p)     0.00270       1.09809
    12    C    1  py     Ryd( 4p)     0.00010       1.27396
    13    C    1  py     Ryd( 5p)     0.00002       1.66627
    14    C    1  pz     Val( 2p)     1.03199      -0.15113
    15    C    1  pz     Ryd( 3p)     0.00160       1.04646
    16    C    1  pz     Ryd( 4p)     0.00017       1.31313
    17    C    1  pz     Ryd( 5p)     0.00003       1.42531
    18    C    1  dxy    Ryd( 3d)     0.00224       1.41483
    19    C    1  dxy    Ryd( 5d)     0.00007       3.02771
    20    C    1  dxy    Ryd( 4d)     0.00001       1.80100
    21    C    1  dxz    Ryd( 3d)     0.00162       1.43311
    22    C    1  dxz    Ryd( 5d)     0.00010       3.02110
    23    C    1  dxz    Ryd( 4d)     0.00001       1.63231
    24    C    1  dyz    Ryd( 3d)     0.00080       1.35105
    25    C    1  dyz    Ryd( 5d)     0.00004       2.80575
    26    C    1  dyz    Ryd( 4d)     0.00001       1.64825
    27    C    1  dx2y2  Ryd( 3d)     0.00177       1.39136
    28    C    1  dx2y2  Ryd( 5d)     0.00006       3.00547
    29    C    1  dx2y2  Ryd( 4d)     0.00001       1.85947
    30    C    1  dz2    Ryd( 3d)     0.00336       1.39261
    31    C    1  dz2    Ryd( 5d)     0.00003       3.06187
    32    C    1  dz2    Ryd( 4d)     0.00003       1.85428
    33    C    1  f(0)   Ryd( 5f)     0.00009       3.79342
    34    C    1  f(0)   Ryd( 4f)     0.00003       2.32739
    35    C    1  f(C1)  Ryd( 5f)     0.00010       3.84634
    36    C    1  f(C1)  Ryd( 4f)     0.00011       2.51082
    37    C    1  f(S1)  Ryd( 5f)     0.00003       3.68409
    38    C    1  f(S1)  Ryd( 4f)     0.00004       2.48561
    39    C    1  f(C2)  Ryd( 5f)     0.00002       3.62699
    40    C    1  f(C2)  Ryd( 4f)     0.00003       2.83772
    41    C    1  f(S2)  Ryd( 5f)     0.00002       3.63267
    42    C    1  f(S2)  Ryd( 4f)     0.00003       2.77378
    43    C    1  f(C3)  Ryd( 5f)     0.00005       3.89395
    44    C    1  f(C3)  Ryd( 4f)     0.00004       2.30214
    45    C    1  f(S3)  Ryd( 5f)     0.00009       3.90029
    46    C    1  f(S3)  Ryd( 4f)     0.00006       2.49393
 
    47    N    2  S      Cor( 1S)     1.99952     -14.73945
    48    N    2  S      Val( 2S)     1.27800      -0.64326
    49    N    2  S      Ryd( 4S)     0.00168       1.95129
    50    N    2  S      Ryd( 3S)     0.00020       1.89762
    51    N    2  S      Ryd( 5S)     0.00004      10.18680
    52    N    2  px     Val( 2p)     1.20346      -0.29854
    53    N    2  px     Ryd( 4p)     0.00300       1.44313
    54    N    2  px     Ryd( 3p)     0.00008       1.12667
    55    N    2  px     Ryd( 5p)     0.00009       3.58936
    56    N    2  py     Val( 2p)     1.08157      -0.27333
    57    N    2  py     Ryd( 4p)     0.00528       1.31837
    58    N    2  py     Ryd( 3p)     0.00030       0.95884
    59    N    2  py     Ryd( 5p)     0.00006       3.04991
    60    N    2  pz     Val( 2p)     1.46408      -0.35196
    61    N    2  pz     Ryd( 4p)     0.00478       1.06626
    62    N    2  pz     Ryd( 3p)     0.00007       0.93021
    63    N    2  pz     Ryd( 5p)     0.00009       3.35537
    64    N    2  dxy    Ryd( 3d)     0.00195       2.24136
    65    N    2  dxy    Ryd( 4d)     0.00037       2.96088
    66    N    2  dxy    Ryd( 5d)     0.00009       4.34764
    67    N    2  dxz    Ryd( 3d)     0.00205       1.87614
    68    N    2  dxz    Ryd( 4d)     0.00039       2.56705
    69    N    2  dxz    Ryd( 5d)     0.00009       4.36142
    70    N    2  dyz    Ryd( 3d)     0.00185       1.73545
    71    N    2  dyz    Ryd( 4d)     0.00026       2.39094
    72    N    2  dyz    Ryd( 5d)     0.00002       4.05611
    73    N    2  dx2y2  Ryd( 3d)     0.00192       2.15555
    74    N    2  dx2y2  Ryd( 4d)     0.00031       2.88776
    75    N    2  dx2y2  Ryd( 5d)     0.00008       4.36919
    76    N    2  dz2    Ryd( 3d)     0.00217       1.78838
    77    N    2  dz2    Ryd( 4d)     0.00034       2.73613
    78    N    2  dz2    Ryd( 5d)     0.00012       4.40947
    79    N    2  f(0)   Ryd( 5f)     0.00010       4.38792
    80    N    2  f(0)   Ryd( 4f)     0.00005       3.32821
    81    N    2  f(C1)  Ryd( 5f)     0.00008       4.54353
    82    N    2  f(C1)  Ryd( 4f)     0.00004       3.86293
    83    N    2  f(S1)  Ryd( 5f)     0.00004       4.42874
    84    N    2  f(S1)  Ryd( 4f)     0.00009       3.55651
    85    N    2  f(C2)  Ryd( 5f)     0.00005       4.47255
    86    N    2  f(C2)  Ryd( 4f)     0.00005       3.53831
    87    N    2  f(S2)  Ryd( 5f)     0.00006       4.53493
    88    N    2  f(S2)  Ryd( 4f)     0.00006       3.58975
    89    N    2  f(C3)  Ryd( 5f)     0.00006       4.67449
    90    N    2  f(C3)  Ryd( 4f)     0.00001       3.70671
    91    N    2  f(S3)  Ryd( 5f)     0.00008       4.80876
    92    N    2  f(S3)  Ryd( 4f)     0.00007       3.87455
 
    93    N    3  S      Cor( 1S)     1.99963     -14.68434
    94    N    3  S      Val( 2S)     1.41463      -0.63250
    95    N    3  S      Ryd( 4S)     0.00328       2.23994
    96    N    3  S      Ryd( 3S)     0.00021       1.41745
    97    N    3  S      Ryd( 5S)     0.00004       9.78600
    98    N    3  px     Val( 2p)     1.21777      -0.21549
    99    N    3  px     Ryd( 3p)     0.00658       1.51272
   100    N    3  px     Ryd( 4p)     0.00029       1.66568
   101    N    3  px     Ryd( 5p)     0.00014       2.54338
   102    N    3  py     Val( 2p)     1.27755      -0.23497
   103    N    3  py     Ryd( 3p)     0.00541       1.43583
   104    N    3  py     Ryd( 4p)     0.00024       1.76925
   105    N    3  py     Ryd( 5p)     0.00013       2.63768
   106    N    3  pz     Val( 2p)     1.06256      -0.24077
   107    N    3  pz     Ryd( 3p)     0.00197       1.14274
   108    N    3  pz     Ryd( 4p)     0.00010       1.50278
   109    N    3  pz     Ryd( 5p)     0.00007       2.03144
   110    N    3  dxy    Ryd( 3d)     0.00208       1.92486
   111    N    3  dxy    Ryd( 4d)     0.00052       2.04771
   112    N    3  dxy    Ryd( 5d)     0.00013       4.91950
   113    N    3  dxz    Ryd( 3d)     0.00198       1.63373
   114    N    3  dxz    Ryd( 4d)     0.00018       1.75820
   115    N    3  dxz    Ryd( 5d)     0.00004       4.57381
   116    N    3  dyz    Ryd( 3d)     0.00269       1.47902
   117    N    3  dyz    Ryd( 4d)     0.00017       1.60303
   118    N    3  dyz    Ryd( 5d)     0.00009       4.49703
   119    N    3  dx2y2  Ryd( 3d)     0.00443       2.21464
   120    N    3  dx2y2  Ryd( 4d)     0.00015       2.48543
   121    N    3  dx2y2  Ryd( 5d)     0.00013       4.89817
   122    N    3  dz2    Ryd( 3d)     0.00686       1.49079
   123    N    3  dz2    Ryd( 4d)     0.00031       2.22861
   124    N    3  dz2    Ryd( 5d)     0.00004       4.65126
   125    N    3  f(0)   Ryd( 5f)     0.00006       4.53894
   126    N    3  f(0)   Ryd( 4f)     0.00004       2.63738
   127    N    3  f(C1)  Ryd( 5f)     0.00008       4.65423
   128    N    3  f(C1)  Ryd( 4f)     0.00007       2.97497
   129    N    3  f(S1)  Ryd( 5f)     0.00005       4.52672
   130    N    3  f(S1)  Ryd( 4f)     0.00008       2.80746
   131    N    3  f(C2)  Ryd( 5f)     0.00006       4.69130
   132    N    3  f(C2)  Ryd( 4f)     0.00008       2.91140
   133    N    3  f(S2)  Ryd( 5f)     0.00003       4.41998
   134    N    3  f(S2)  Ryd( 4f)     0.00006       2.86003
   135    N    3  f(C3)  Ryd( 5f)     0.00021       5.11222
   136    N    3  f(C3)  Ryd( 4f)     0.00005       3.61649
   137    N    3  f(S3)  Ryd( 5f)     0.00008       5.01472
   138    N    3  f(S3)  Ryd( 4f)     0.00007       3.30269
 
   139    N    4  S      Cor( 1S)     1.99939     -14.60020
   140    N    4  S      Val( 2S)     1.37544      -0.60630
   141    N    4  S      Ryd( 4S)     0.00224       2.88160
   142    N    4  S      Ryd( 3S)     0.00019       1.58563
   143    N    4  S      Ryd( 5S)     0.00003       9.70655
   144    N    4  px     Val( 2p)     1.14532      -0.19917
   145    N    4  px     Ryd( 4p)     0.00496       1.98778
   146    N    4  px     Ryd( 5p)     0.00017       2.05845
   147    N    4  px     Ryd( 3p)     0.00011       1.88534
   148    N    4  py     Val( 2p)     1.50379      -0.27870
   149    N    4  py     Ryd( 3p)     0.00609       1.75105
   150    N    4  py     Ryd( 5p)     0.00015       2.97074
   151    N    4  py     Ryd( 4p)     0.00017       2.17968
   152    N    4  pz     Val( 2p)     1.11584      -0.23801
   153    N    4  pz     Ryd( 3p)     0.00071       1.24257
   154    N    4  pz     Ryd( 5p)     0.00006       2.07503
   155    N    4  pz     Ryd( 4p)     0.00009       1.35539
   156    N    4  dxy    Ryd( 3d)     0.00513       1.99322
   157    N    4  dxy    Ryd( 5d)     0.00018       3.76253
   158    N    4  dxy    Ryd( 4d)     0.00019       3.06691
   159    N    4  dxz    Ryd( 3d)     0.00202       1.58545
   160    N    4  dxz    Ryd( 5d)     0.00006       3.41141
   161    N    4  dxz    Ryd( 4d)     0.00006       2.83118
   162    N    4  dyz    Ryd( 3d)     0.00602       1.33398
   163    N    4  dyz    Ryd( 5d)     0.00008       3.41804
   164    N    4  dyz    Ryd( 4d)     0.00008       2.74217
   165    N    4  dx2y2  Ryd( 3d)     0.00535       2.72630
   166    N    4  dx2y2  Ryd( 5d)     0.00034       4.02070
   167    N    4  dx2y2  Ryd( 4d)     0.00015       3.05473
   168    N    4  dz2    Ryd( 3d)     0.00791       1.54536
   169    N    4  dz2    Ryd( 5d)     0.00012       3.78279
   170    N    4  dz2    Ryd( 4d)     0.00008       3.13704
   171    N    4  f(0)   Ryd( 5f)     0.00018       3.81742
   172    N    4  f(0)   Ryd( 4f)     0.00002       3.39996
   173    N    4  f(C1)  Ryd( 5f)     0.00008       4.22567
   174    N    4  f(C1)  Ryd( 4f)     0.00009       3.91758
   175    N    4  f(S1)  Ryd( 5f)     0.00012       4.08073
   176    N    4  f(S1)  Ryd( 4f)     0.00003       3.65705
   177    N    4  f(C2)  Ryd( 5f)     0.00004       3.99923
   178    N    4  f(C2)  Ryd( 4f)     0.00003       3.58068
   179    N    4  f(S2)  Ryd( 5f)     0.00003       3.64936
   180    N    4  f(S2)  Ryd( 4f)     0.00005       3.63176
   181    N    4  f(C3)  Ryd( 5f)     0.00019       5.16127
   182    N    4  f(C3)  Ryd( 4f)     0.00013       4.34533
   183    N    4  f(S3)  Ryd( 5f)     0.00010       4.74218
   184    N    4  f(S3)  Ryd( 4f)     0.00015       4.11730
 
   185    C    5  S      Cor( 1S)     1.99901     -10.45982
   186    C    5  S      Val( 2S)     0.84332      -0.10608
   187    C    5  S      Ryd( 4S)     0.00350       1.89716
   188    C    5  S      Ryd( 5S)     0.00016       2.61830
   189    C    5  S      Ryd( 3S)     0.00004       1.05086
   190    C    5  px     Val( 2p)     1.07451      -0.14273
   191    C    5  px     Ryd( 5p)     0.00432       2.20482
   192    C    5  px     Ryd( 3p)     0.00017       0.62971
   193    C    5  px     Ryd( 4p)     0.00009       2.08995
   194    C    5  py     Val( 2p)     0.93443      -0.09408
   195    C    5  py     Ryd( 4p)     0.01073       1.71465
   196    C    5  py     Ryd( 3p)     0.00022       0.57528
   197    C    5  py     Ryd( 5p)     0.00009       1.87735
   198    C    5  pz     Val( 2p)     1.00947      -0.17212
   199    C    5  pz     Ryd( 4p)     0.00173       1.14839
   200    C    5  pz     Ryd( 3p)     0.00014       0.39985
   201    C    5  pz     Ryd( 5p)     0.00018       1.25402
   202    C    5  dxy    Ryd( 3d)     0.00106       1.90861
   203    C    5  dxy    Ryd( 4d)     0.00075       3.90916
   204    C    5  dxy    Ryd( 5d)     0.00009       5.43824
   205    C    5  dxz    Ryd( 3d)     0.00027       1.41470
   206    C    5  dxz    Ryd( 5d)     0.00042       2.97735
   207    C    5  dxz    Ryd( 4d)     0.00003       2.80623
   208    C    5  dyz    Ryd( 3d)     0.00045       1.12850
   209    C    5  dyz    Ryd( 5d)     0.00039       2.97664
   210    C    5  dyz    Ryd( 4d)     0.00009       2.80786
   211    C    5  dx2y2  Ryd( 3d)     0.00251       2.03035
   212    C    5  dx2y2  Ryd( 4d)     0.00063       3.81524
   213    C    5  dx2y2  Ryd( 5d)     0.00006       4.74808
   214    C    5  dz2    Ryd( 3d)     0.00148       1.70925
   215    C    5  dz2    Ryd( 4d)     0.00042       4.05589
   216    C    5  dz2    Ryd( 5d)     0.00013       4.56728
   217    C    5  f(0)   Ryd( 4f)     0.00045       1.48491
   218    C    5  f(0)   Ryd( 5f)     0.00030       3.53635
   219    C    5  f(C1)  Ryd( 4f)     0.00162       1.63950
   220    C    5  f(C1)  Ryd( 5f)     0.00047       3.74247
   221    C    5  f(S1)  Ryd( 4f)     0.00058       1.55569
   222    C    5  f(S1)  Ryd( 5f)     0.00016       3.57510
   223    C    5  f(C2)  Ryd( 4f)     0.00152       1.48522
   224    C    5  f(C2)  Ryd( 5f)     0.00006       3.56787
   225    C    5  f(S2)  Ryd( 4f)     0.00074       1.37493
   226    C    5  f(S2)  Ryd( 5f)     0.00003       3.63877
   227    C    5  f(C3)  Ryd( 4f)     0.00138       1.97909
   228    C    5  f(C3)  Ryd( 5f)     0.00013       4.46508
   229    C    5  f(S3)  Ryd( 4f)     0.00152       2.15387
   230    C    5  f(S3)  Ryd( 5f)     0.00016       4.47663
 
   231    N    6  S      Cor( 1S)     1.99932     -14.62180
   232    N    6  S      Val( 2S)     1.38614      -0.61386
   233    N    6  S      Ryd( 4S)     0.00103       3.11341
   234    N    6  S      Ryd( 3S)     0.00012       1.48229
   235    N    6  S      Ryd( 5S)     0.00002       9.84500
   236    N    6  px     Val( 2p)     1.00225      -0.16488
   237    N    6  px     Ryd( 4p)     0.00245       2.12371
   238    N    6  px     Ryd( 3p)     0.00020       2.10189
   239    N    6  px     Ryd( 5p)     0.00011       2.68063
   240    N    6  py     Val( 2p)     1.62809      -0.30005
   241    N    6  py     Ryd( 3p)     0.00361       1.45984
   242    N    6  py     Ryd( 4p)     0.00014       2.66912
   243    N    6  py     Ryd( 5p)     0.00022       2.85307
   244    N    6  pz     Val( 2p)     1.11570      -0.23845
   245    N    6  pz     Ryd( 3p)     0.00144       1.18004
   246    N    6  pz     Ryd( 4p)     0.00013       1.88367
   247    N    6  pz     Ryd( 5p)     0.00007       2.00123
   248    N    6  dxy    Ryd( 3d)     0.00591       2.85527
   249    N    6  dxy    Ryd( 4d)     0.00022       3.23201
   250    N    6  dxy    Ryd( 5d)     0.00013       4.03704
   251    N    6  dxz    Ryd( 3d)     0.00074       1.60904
   252    N    6  dxz    Ryd( 4d)     0.00009       2.73346
   253    N    6  dxz    Ryd( 5d)     0.00008       3.78319
   254    N    6  dyz    Ryd( 3d)     0.00501       1.39991
   255    N    6  dyz    Ryd( 4d)     0.00005       2.62393
   256    N    6  dyz    Ryd( 5d)     0.00003       3.60131
   257    N    6  dx2y2  Ryd( 3d)     0.00233       1.90237
   258    N    6  dx2y2  Ryd( 4d)     0.00027       3.08688
   259    N    6  dx2y2  Ryd( 5d)     0.00016       4.09826
   260    N    6  dz2    Ryd( 3d)     0.00602       1.58184
   261    N    6  dz2    Ryd( 4d)     0.00011       2.95527
   262    N    6  dz2    Ryd( 5d)     0.00004       4.05601
   263    N    6  f(0)   Ryd( 5f)     0.00016       3.97704
   264    N    6  f(0)   Ryd( 4f)     0.00004       3.36996
   265    N    6  f(C1)  Ryd( 5f)     0.00012       4.19736
   266    N    6  f(C1)  Ryd( 4f)     0.00005       3.91014
   267    N    6  f(S1)  Ryd( 5f)     0.00007       4.09968
   268    N    6  f(S1)  Ryd( 4f)     0.00004       3.42940
   269    N    6  f(C2)  Ryd( 4f)     0.00004       3.73904
   270    N    6  f(C2)  Ryd( 5f)     0.00006       3.75530
   271    N    6  f(S2)  Ryd( 5f)     0.00007       4.10270
   272    N    6  f(S2)  Ryd( 4f)     0.00003       3.43935
   273    N    6  f(C3)  Ryd( 5f)     0.00005       4.64666
   274    N    6  f(C3)  Ryd( 4f)     0.00012       4.12728
   275    N    6  f(S3)  Ryd( 5f)     0.00017       4.90668
   276    N    6  f(S3)  Ryd( 4f)     0.00009       4.27729
 
   277    C    7  S      Cor( 1S)     1.99912     -10.56834
   278    C    7  S      Val( 2S)     0.79038      -0.14313
   279    C    7  S      Ryd( 4S)     0.00426       1.90941
   280    C    7  S      Ryd( 5S)     0.00018       2.58342
   281    C    7  S      Ryd( 3S)     0.00010       1.19617
   282    C    7  px     Val( 2p)     0.89014      -0.07644
   283    C    7  px     Ryd( 5p)     0.00383       1.63739
   284    C    7  px     Ryd( 3p)     0.00022       0.93706
   285    C    7  px     Ryd( 4p)     0.00003       1.44858
   286    C    7  py     Val( 2p)     0.76207      -0.04557
   287    C    7  py     Ryd( 4p)     0.01333       1.64098
   288    C    7  py     Ryd( 3p)     0.00021       0.96806
   289    C    7  py     Ryd( 5p)     0.00013       1.79161
   290    C    7  pz     Val( 2p)     0.77102      -0.14715
   291    C    7  pz     Ryd( 5p)     0.00098       1.21198
   292    C    7  pz     Ryd( 3p)     0.00017       0.63444
   293    C    7  pz     Ryd( 4p)     0.00014       1.12145
   294    C    7  dxy    Ryd( 3d)     0.00126       2.71484
   295    C    7  dxy    Ryd( 4d)     0.00039       2.71740
   296    C    7  dxy    Ryd( 5d)     0.00011       3.19840
   297    C    7  dxz    Ryd( 4d)     0.00107       2.26905
   298    C    7  dxz    Ryd( 3d)     0.00013       2.13600
   299    C    7  dxz    Ryd( 5d)     0.00006       2.34022
   300    C    7  dyz    Ryd( 3d)     0.00206       2.17684
   301    C    7  dyz    Ryd( 4d)     0.00011       2.18480
   302    C    7  dyz    Ryd( 5d)     0.00007       2.63930
   303    C    7  dx2y2  Ryd( 4d)     0.00193       2.75342
   304    C    7  dx2y2  Ryd( 3d)     0.00017       2.66166
   305    C    7  dx2y2  Ryd( 5d)     0.00007       3.73473
   306    C    7  dz2    Ryd( 4d)     0.00076       3.01541
   307    C    7  dz2    Ryd( 3d)     0.00080       2.66908
   308    C    7  dz2    Ryd( 5d)     0.00010       3.29220
   309    C    7  f(0)   Ryd( 5f)     0.00014       3.59661
   310    C    7  f(0)   Ryd( 4f)     0.00003       2.45159
   311    C    7  f(C1)  Ryd( 5f)     0.00016       3.66015
   312    C    7  f(C1)  Ryd( 4f)     0.00003       2.94390
   313    C    7  f(S1)  Ryd( 5f)     0.00007       3.63305
   314    C    7  f(S1)  Ryd( 4f)     0.00005       3.09737
   315    C    7  f(C2)  Ryd( 5f)     0.00002       3.62031
   316    C    7  f(C2)  Ryd( 4f)     0.00005       2.65749
   317    C    7  f(S2)  Ryd( 5f)     0.00002       3.67822
   318    C    7  f(S2)  Ryd( 4f)     0.00002       3.10150
   319    C    7  f(C3)  Ryd( 4f)     0.00013       4.42772
   320    C    7  f(C3)  Ryd( 5f)     0.00003       6.60128
   321    C    7  f(S3)  Ryd( 4f)     0.00009       4.44939
   322    C    7  f(S3)  Ryd( 5f)     0.00003       5.49816
 
   323    O    8  S      Cor( 1S)     1.99980     -19.35372
   324    O    8  S      Val( 2S)     1.71493      -1.02075
   325    O    8  S      Ryd( 4S)     0.00107       2.93467
   326    O    8  S      Ryd( 3S)     0.00016       1.84456
   327    O    8  S      Ryd( 5S)     0.00001       8.84483
   328    O    8  px     Val( 2p)     1.82151      -0.35447
   329    O    8  px     Ryd( 4p)     0.00132       1.34153
   330    O    8  px     Ryd( 3p)     0.00007       0.76533
   331    O    8  px     Ryd( 5p)     0.00003       4.48698
   332    O    8  py     Val( 2p)     1.55540      -0.34207
   333    O    8  py     Ryd( 4p)     0.00084       1.59933
   334    O    8  py     Ryd( 3p)     0.00010       0.54086
   335    O    8  py     Ryd( 5p)     0.00006       5.33818
   336    O    8  pz     Val( 2p)     1.42856      -0.30198
   337    O    8  pz     Ryd( 4p)     0.00044       1.08479
   338    O    8  pz     Ryd( 3p)     0.00005       0.61017
   339    O    8  pz     Ryd( 5p)     0.00001       4.06012
   340    O    8  dxy    Ryd( 3d)     0.00676       1.95354
   341    O    8  dxy    Ryd( 4d)     0.00007       2.41199
   342    O    8  dxy    Ryd( 5d)     0.00005       6.70468
   343    O    8  dxz    Ryd( 3d)     0.00080       1.44250
   344    O    8  dxz    Ryd( 4d)     0.00002       1.48831
   345    O    8  dxz    Ryd( 5d)     0.00001       6.57232
   346    O    8  dyz    Ryd( 4d)     0.00571       1.57845
   347    O    8  dyz    Ryd( 3d)     0.00004       1.56363
   348    O    8  dyz    Ryd( 5d)     0.00003       6.57152
   349    O    8  dx2y2  Ryd( 3d)     0.00682       1.90049
   350    O    8  dx2y2  Ryd( 4d)     0.00007       2.30254
   351    O    8  dx2y2  Ryd( 5d)     0.00003       6.74453
   352    O    8  dz2    Ryd( 3d)     0.00280       1.62327
   353    O    8  dz2    Ryd( 4d)     0.00006       2.21224
   354    O    8  dz2    Ryd( 5d)     0.00000       6.62989
   355    O    8  f(0)   Ryd( 4f)     0.00010       3.13024
   356    O    8  f(0)   Ryd( 5f)     0.00001       5.48688
   357    O    8  f(C1)  Ryd( 4f)     0.00004       3.16909
   358    O    8  f(C1)  Ryd( 5f)     0.00001       5.46592
   359    O    8  f(S1)  Ryd( 4f)     0.00012       3.67608
   360    O    8  f(S1)  Ryd( 5f)     0.00001       5.77088
   361    O    8  f(C2)  Ryd( 4f)     0.00017       3.18005
   362    O    8  f(C2)  Ryd( 5f)     0.00001       5.62944
   363    O    8  f(S2)  Ryd( 4f)     0.00012       3.11712
   364    O    8  f(S2)  Ryd( 5f)     0.00001       5.67637
   365    O    8  f(C3)  Ryd( 4f)     0.00042       3.87797
   366    O    8  f(C3)  Ryd( 5f)     0.00002       5.96724
   367    O    8  f(S3)  Ryd( 4f)     0.00036       3.70337
   368    O    8  f(S3)  Ryd( 5f)     0.00004       5.91695
 
   369    O    9  S      Cor( 1S)     1.99978     -19.48229
   370    O    9  S      Val( 2S)     1.67780      -1.04805
   371    O    9  S      Ryd( 3S)     0.00053       1.38239
   372    O    9  S      Ryd( 4S)     0.00013       2.67284
   373    O    9  S      Ryd( 5S)     0.00002      10.00743
   374    O    9  px     Val( 2p)     1.44367      -0.36993
   375    O    9  px     Ryd( 4p)     0.00081       1.24944
   376    O    9  px     Ryd( 3p)     0.00008       0.80864
   377    O    9  px     Ryd( 5p)     0.00005       5.19803
   378    O    9  py     Val( 2p)     1.71311      -0.41642
   379    O    9  py     Ryd( 4p)     0.00082       1.01022
   380    O    9  py     Ryd( 3p)     0.00009       0.59294
   381    O    9  py     Ryd( 5p)     0.00006       4.85427
   382    O    9  pz     Val( 2p)     1.82059      -0.42395
   383    O    9  pz     Ryd( 4p)     0.00104       0.89090
   384    O    9  pz     Ryd( 3p)     0.00002       0.53965
   385    O    9  pz     Ryd( 5p)     0.00001       4.13831
   386    O    9  dxy    Ryd( 3d)     0.00692       1.96970
   387    O    9  dxy    Ryd( 4d)     0.00013       2.38824
   388    O    9  dxy    Ryd( 5d)     0.00005       6.79655
   389    O    9  dxz    Ryd( 3d)     0.00031       1.25883
   390    O    9  dxz    Ryd( 4d)     0.00009       2.01258
   391    O    9  dxz    Ryd( 5d)     0.00002       6.41410
   392    O    9  dyz    Ryd( 3d)     0.00490       1.31742
   393    O    9  dyz    Ryd( 4d)     0.00003       1.74575
   394    O    9  dyz    Ryd( 5d)     0.00003       6.40210
   395    O    9  dx2y2  Ryd( 3d)     0.00314       1.67060
   396    O    9  dx2y2  Ryd( 4d)     0.00007       2.24522
   397    O    9  dx2y2  Ryd( 5d)     0.00005       6.69329
   398    O    9  dz2    Ryd( 3d)     0.00316       1.45084
   399    O    9  dz2    Ryd( 4d)     0.00009       2.22743
   400    O    9  dz2    Ryd( 5d)     0.00001       6.58350
   401    O    9  f(0)   Ryd( 4f)     0.00041       2.90480
   402    O    9  f(0)   Ryd( 5f)     0.00001       5.90827
   403    O    9  f(C1)  Ryd( 4f)     0.00026       3.37662
   404    O    9  f(C1)  Ryd( 5f)     0.00002       6.14713
   405    O    9  f(S1)  Ryd( 4f)     0.00015       3.04505
   406    O    9  f(S1)  Ryd( 5f)     0.00001       6.01026
   407    O    9  f(C2)  Ryd( 4f)     0.00008       2.85454
   408    O    9  f(C2)  Ryd( 5f)     0.00001       6.08540
   409    O    9  f(S2)  Ryd( 4f)     0.00007       3.08361
   410    O    9  f(S2)  Ryd( 5f)     0.00001       5.95430
   411    O    9  f(C3)  Ryd( 4f)     0.00005       3.89593
   412    O    9  f(C3)  Ryd( 5f)     0.00004       6.40900
   413    O    9  f(S3)  Ryd( 4f)     0.00015       3.98520
   414    O    9  f(S3)  Ryd( 5f)     0.00004       6.39561
 
   415    H   10  S      Val( 1S)     0.76803      -0.00753
   416    H   10  S      Ryd( 4S)     0.00028       1.83590
   417    H   10  S      Ryd( 2S)     0.00008       0.36803
   418    H   10  S      Ryd( 3S)     0.00005       1.46101
   419    H   10  px     Ryd( 2p)     0.00048       0.91694
   420    H   10  px     Ryd( 4p)     0.00010       3.75743
   421    H   10  px     Ryd( 3p)     0.00004       3.48318
   422    H   10  py     Ryd( 2p)     0.00088       0.84143
   423    H   10  py     Ryd( 4p)     0.00008       3.67738
   424    H   10  py     Ryd( 3p)     0.00004       2.60451
   425    H   10  pz     Ryd( 2p)     0.00012       0.74018
   426    H   10  pz     Ryd( 4p)     0.00002       3.70160
   427    H   10  pz     Ryd( 3p)     0.00003       1.87947
   428    H   10  dxy    Ryd( 3d)     0.00013       2.19485
   429    H   10  dxy    Ryd( 4d)     0.00001       4.16794
   430    H   10  dxz    Ryd( 3d)     0.00002       1.94922
   431    H   10  dxz    Ryd( 4d)     0.00001       3.76268
   432    H   10  dyz    Ryd( 3d)     0.00002       1.87896
   433    H   10  dyz    Ryd( 4d)     0.00001       3.30495
   434    H   10  dx2y2  Ryd( 3d)     0.00003       2.03283
   435    H   10  dx2y2  Ryd( 4d)     0.00002       3.98900
   436    H   10  dz2    Ryd( 3d)     0.00006       1.96108
   437    H   10  dz2    Ryd( 4d)     0.00002       3.53737
 
   438    H   11  S      Val( 1S)     0.78420      -0.01475
   439    H   11  S      Ryd( 4S)     0.00035       1.88969
   440    H   11  S      Ryd( 2S)     0.00008       0.44641
   441    H   11  S      Ryd( 3S)     0.00003       1.32865
   442    H   11  px     Ryd( 2p)     0.00051       0.91845
   443    H   11  px     Ryd( 4p)     0.00004       3.87447
   444    H   11  px     Ryd( 3p)     0.00003       2.03484
   445    H   11  py     Ryd( 2p)     0.00042       0.81897
   446    H   11  py     Ryd( 4p)     0.00004       3.83204
   447    H   11  py     Ryd( 3p)     0.00003       1.79917
   448    H   11  pz     Ryd( 2p)     0.00062       1.01740
   449    H   11  pz     Ryd( 4p)     0.00013       3.99819
   450    H   11  pz     Ryd( 3p)     0.00002       3.97017
   451    H   11  dxy    Ryd( 3d)     0.00002       2.22330
   452    H   11  dxy    Ryd( 4d)     0.00002       2.92825
   453    H   11  dxz    Ryd( 3d)     0.00006       2.52517
   454    H   11  dxz    Ryd( 4d)     0.00001       3.75854
   455    H   11  dyz    Ryd( 3d)     0.00001       2.31874
   456    H   11  dyz    Ryd( 4d)     0.00001       3.44656
   457    H   11  dx2y2  Ryd( 3d)     0.00003       2.29476
   458    H   11  dx2y2  Ryd( 4d)     0.00001       2.91296
   459    H   11  dz2    Ryd( 3d)     0.00012       2.41420
   460    H   11  dz2    Ryd( 4d)     0.00002       4.06453
 
   461    H   12  S      Val( 1S)     0.76580      -0.00583
   462    H   12  S      Ryd( 4S)     0.00024       1.84958
   463    H   12  S      Ryd( 2S)     0.00009       0.31229
   464    H   12  S      Ryd( 3S)     0.00005       1.51880
   465    H   12  px     Ryd( 2p)     0.00032       0.85912
   466    H   12  px     Ryd( 4p)     0.00006       3.61803
   467    H   12  px     Ryd( 3p)     0.00005       1.98199
   468    H   12  py     Ryd( 2p)     0.00080       1.05854
   469    H   12  py     Ryd( 3p)     0.00011       3.62169
   470    H   12  py     Ryd( 4p)     0.00003       3.99041
   471    H   12  pz     Ryd( 2p)     0.00015       0.83353
   472    H   12  pz     Ryd( 4p)     0.00002       3.60835
   473    H   12  pz     Ryd( 3p)     0.00002       1.96191
   474    H   12  dxy    Ryd( 3d)     0.00004       2.07794
   475    H   12  dxy    Ryd( 4d)     0.00002       3.96854
   476    H   12  dxz    Ryd( 3d)     0.00002       1.89488
   477    H   12  dxz    Ryd( 4d)     0.00001       3.20009
   478    H   12  dyz    Ryd( 3d)     0.00003       2.07325
   479    H   12  dyz    Ryd( 4d)     0.00001       3.83579
   480    H   12  dx2y2  Ryd( 3d)     0.00011       2.21737
   481    H   12  dx2y2  Ryd( 4d)     0.00001       4.08625
   482    H   12  dz2    Ryd( 3d)     0.00005       1.98931
   483    H   12  dz2    Ryd( 4d)     0.00002       3.51615
 
   484    H   13  S      Val( 1S)     0.48852       0.12101
   485    H   13  S      Ryd( 4S)     0.00087       1.79815
   486    H   13  S      Ryd( 2S)     0.00018       0.69605
   487    H   13  S      Ryd( 3S)     0.00016       1.56272
   488    H   13  px     Ryd( 4p)     0.00014       3.70236
   489    H   13  px     Ryd( 2p)     0.00033       2.49578
   490    H   13  px     Ryd( 3p)     0.00002       3.12780
   491    H   13  py     Ryd( 3p)     0.00024       2.70394
   492    H   13  py     Ryd( 2p)     0.00003       2.28451
   493    H   13  py     Ryd( 4p)     0.00003       2.92285
   494    H   13  pz     Ryd( 3p)     0.00053       2.22569
   495    H   13  pz     Ryd( 2p)     0.00003       2.04655
   496    H   13  pz     Ryd( 4p)     0.00001       2.80610
   497    H   13  dxy    Ryd( 3d)     0.00002       1.50417
   498    H   13  dxy    Ryd( 4d)     0.00001       4.47042
   499    H   13  dxz    Ryd( 3d)     0.00010       1.11677
   500    H   13  dxz    Ryd( 4d)     0.00000       4.24563
   501    H   13  dyz    Ryd( 3d)     0.00003       1.12738
   502    H   13  dyz    Ryd( 4d)     0.00000       3.85060
   503    H   13  dx2y2  Ryd( 3d)     0.00006       1.45257
   504    H   13  dx2y2  Ryd( 4d)     0.00001       4.54716
   505    H   13  dz2    Ryd( 3d)     0.00009       1.55664
   506    H   13  dz2    Ryd( 4d)     0.00001       4.05682

 WARNING:  Population inversion found on atom  C    1
           Population inversion found on atom  N    2
           Population inversion found on atom  N    3
           Population inversion found on atom  N    4
           Population inversion found on atom  C    5
           Population inversion found on atom  N    6
           Population inversion found on atom  C    7
           Population inversion found on atom  O    8
           Population inversion found on atom  O    9
           Population inversion found on atom  H   10
           Population inversion found on atom  H   11
           Population inversion found on atom  H   12
           Population inversion found on atom  H   13


 Summary of Natural Population Analysis:                  
                                                          
                                       Natural Population 
                Natural  -----------------------------------------------
    Atom  No    Charge         Core      Valence    Rydberg      Total
 -----------------------------------------------------------------------
      C    1   -0.39529      1.99938     4.37588    0.02003     6.39529
      N    2   -0.05516      1.99952     5.02712    0.02852     7.05516
      N    3   -0.01141      1.99963     4.97250    0.03928     7.01141
      N    4   -0.18376      1.99939     5.14039    0.04398     7.18376
      C    5    0.09999      1.99901     3.86174    0.03926     5.90001
      N    6   -0.16331      1.99932     5.13217    0.03183     7.16331
      C    7    0.75375      1.99912     3.21360    0.03353     5.24625
      O    8   -0.54905      1.99980     6.52040    0.02885     8.54905
      O    9   -0.67891      1.99978     6.65518    0.02395     8.67891
      H   10    0.22943      0.00000     0.76803    0.00254     0.77057
      H   11    0.21319      0.00000     0.78420    0.00261     0.78681
      H   12    0.23194      0.00000     0.76580    0.00226     0.76806
      H   13    0.50860      0.00000     0.48852    0.00288     0.49140
 =======================================================================
   * Total *    0.00000     17.99495    47.70552    0.29953    66.00000

                                 Natural Population      
 --------------------------------------------------------
   Core                      17.99495 ( 99.9720% of  18)
   Valence                   47.70552 ( 99.3865% of  48)
   Natural Minimal Basis     65.70047 ( 99.5462% of  66)
   Natural Rydberg Basis      0.29953 (  0.4538% of  66)
 --------------------------------------------------------

    Atom  No          Natural Electron Configuration
 ----------------------------------------------------------------------------
      C    1      [core]2S( 1.11)2p( 3.27)3p( 0.01)3d( 0.01)
      N    2      [core]2S( 1.28)2p( 3.75)3d( 0.01)4p( 0.01)
      N    3      [core]2S( 1.41)2p( 3.56)3p( 0.01)3d( 0.02)
      N    4      [core]2S( 1.38)2p( 3.76)3p( 0.01)3d( 0.03)4p( 0.01)
      C    5      [core]2S( 0.84)2p( 3.02)3d( 0.01)4p( 0.01)4f( 0.01)
      N    6      [core]2S( 1.39)2p( 3.75)3p( 0.01)3d( 0.02)
      C    7      [core]2S( 0.79)2p( 2.42)4p( 0.01)
      O    8      [core]2S( 1.71)2p( 4.81)3d( 0.02)4d( 0.01)
      O    9      [core]2S( 1.68)2p( 4.98)3d( 0.02)
      H   10            1S( 0.77)
      H   11            1S( 0.78)
      H   12            1S( 0.77)
      H   13            1S( 0.49)


 NATURAL BOND ORBITAL ANALYSIS:

                       Occupancies       Lewis Structure    Low   High
           Occ.    -------------------  -----------------   occ   occ
  Cycle   Thresh.   Lewis   Non-Lewis     CR  BD  3C  LP    (L)   (NL)   Dev
 =============================================================================
   1(1)    1.90    62.72205   3.27795      9  15   0   9     8      5    0.66
   2(2)    1.90    62.72205   3.27795      9  15   0   9     8      5    0.66
   3(1)    1.80    64.54259   1.45741      9  16   0   8     1      3    0.25
   4(2)    1.80    64.54259   1.45741      9  16   0   8     1      3    0.25
   5(1)    1.70    64.54259   1.45741      9  16   0   8     1      3    0.25
   6(2)    1.70    64.54259   1.45741      9  16   0   8     1      3    0.25
   7(1)    1.60    64.59906   1.40094      9  16   0   8     0      3    0.25
   8(2)    1.60    64.59906   1.40094      9  16   0   8     0      3    0.25
   9(1)    1.50    64.11243   1.88757      9  15   0   9     0      4    0.73
  10(2)    1.50    64.11243   1.88757      9  15   0   9     0      4    0.73
  11(1)    1.60    64.59906   1.40094      9  16   0   8     0      3    0.25
 -----------------------------------------------------------------------------

 Structure accepted: RESONANCE keyword permits strongly delocalized structure

 --------------------------------------------------------
   Core                     17.99492 ( 99.972% of  18)
   Valence Lewis            46.60414 ( 97.092% of  48)
  ==================       ============================
   Total Lewis              64.59906 ( 97.877% of  66)
  -----------------------------------------------------
   Valence non-Lewis         1.27003 (  1.924% of  66)
   Rydberg non-Lewis         0.13091 (  0.198% of  66)
  ==================       ============================
   Total non-Lewis           1.40094 (  2.123% of  66)
 --------------------------------------------------------


       (Occupancy)   Bond orbital/ Coefficients/ Hybrids
 ---------------------------------------------------------------------------------
     1. (1.93787) BD ( 1) C   1 - N   2  
                ( 35.99%)   0.5999* C   1 s( 25.07%)p 2.98( 74.74%)d 0.01(  0.18%)
                                                  f 0.00(  0.01%)
                                            0.0009  0.4995 -0.0338  0.0052 -0.0014
                                            0.5895  0.0201 -0.0057 -0.0029 -0.2819
                                           -0.0101  0.0023  0.0014 -0.5645 -0.0348
                                            0.0012  0.0018 -0.0185 -0.0034 -0.0006
                                           -0.0299 -0.0101  0.0004  0.0136  0.0052
                                           -0.0004  0.0160  0.0024  0.0010 -0.0002
                                            0.0042 -0.0013  0.0043 -0.0001  0.0022
                                           -0.0031 -0.0006  0.0021 -0.0025  0.0027
                                            0.0029 -0.0029  0.0010  0.0015 -0.0022
                                           -0.0024
                ( 64.01%)   0.8001* N   2 s( 27.06%)p 2.69( 72.79%)d 0.01(  0.14%)
                                                  f 0.00(  0.01%)
                                           -0.0008  0.5201  0.0088 -0.0058  0.0004
                                           -0.5517  0.0050  0.0037  0.0015  0.2692
                                           -0.0001 -0.0011 -0.0009  0.5921  0.0187
                                            0.0002 -0.0028 -0.0067  0.0019 -0.0025
                                           -0.0272  0.0035 -0.0027  0.0126 -0.0001
                                            0.0010  0.0051 -0.0030  0.0027  0.0187
                                            0.0031 -0.0023 -0.0057  0.0049 -0.0031
                                            0.0008  0.0006  0.0003  0.0029 -0.0002
                                           -0.0040  0.0000 -0.0006  0.0010  0.0032
                                           -0.0013
     2. (1.98711) BD ( 1) C   1 - H  10  
                ( 61.54%)   0.7845* C   1 s( 24.78%)p 3.03( 75.04%)d 0.01(  0.17%)
                                                  f 0.00(  0.01%)
                                           -0.0001  0.4978  0.0053 -0.0008  0.0010
                                           -0.7138  0.0020 -0.0010 -0.0008 -0.4865
                                            0.0100  0.0003  0.0002 -0.0637  0.0079
                                            0.0003  0.0002  0.0325  0.0001 -0.0004
                                            0.0054  0.0015 -0.0002  0.0077  0.0012
                                           -0.0001  0.0099 -0.0016  0.0005 -0.0208
                                            0.0003 -0.0003  0.0009  0.0018  0.0051
                                            0.0009  0.0004  0.0005  0.0023 -0.0003
                                            0.0011 -0.0013 -0.0004  0.0021 -0.0064
                                           -0.0017
                ( 38.46%)   0.6201* H  10 s( 99.91%)p 0.00(  0.07%)d 0.00(  0.02%)
                                            0.9995  0.0007  0.0003 -0.0001 -0.0205
                                            0.0104 -0.0002 -0.0123  0.0063 -0.0006
                                           -0.0027 -0.0004 -0.0003 -0.0113  0.0012
                                           -0.0006 -0.0010 -0.0016 -0.0006 -0.0052
                                            0.0019  0.0073 -0.0011
     3. (1.99118) BD ( 1) C   1 - H  11  
                ( 60.99%)   0.7809* C   1 s( 25.34%)p 2.94( 74.47%)d 0.01(  0.18%)
                                                  f 0.00(  0.01%)
                                           -0.0002  0.5033  0.0099 -0.0014 -0.0005
                                            0.3163 -0.0159 -0.0016  0.0000 -0.0550
                                            0.0065  0.0003  0.0000  0.8008  0.0002
                                            0.0037  0.0011 -0.0048  0.0001  0.0006
                                            0.0240  0.0018  0.0004 -0.0037 -0.0011
                                           -0.0001  0.0084 -0.0001 -0.0007  0.0332
                                           -0.0025 -0.0002  0.0073 -0.0004  0.0041
                                            0.0043  0.0000 -0.0017  0.0010  0.0007
                                            0.0003  0.0000  0.0012  0.0004 -0.0027
                                           -0.0005
                ( 39.01%)   0.6246* H  11 s( 99.90%)p 0.00(  0.08%)d 0.00(  0.02%)
                                            0.9995  0.0016  0.0003  0.0000  0.0119
                                           -0.0026  0.0014 -0.0027  0.0000 -0.0007
                                            0.0213 -0.0122  0.0001  0.0007 -0.0001
                                           -0.0078 -0.0013  0.0010  0.0006 -0.0018
                                           -0.0003 -0.0118  0.0018
     4. (1.98773) BD ( 1) C   1 - H  12  
                ( 61.66%)   0.7853* C   1 s( 24.90%)p 3.01( 74.92%)d 0.01(  0.17%)
                                                  f 0.00(  0.01%)
                                           -0.0001  0.4990  0.0049 -0.0008  0.0007
                                           -0.1980 -0.0040 -0.0016 -0.0008  0.8235
                                           -0.0081  0.0008  0.0005 -0.1781  0.0093
                                           -0.0002  0.0004 -0.0137  0.0017 -0.0004
                                            0.0009  0.0000 -0.0002 -0.0179 -0.0019
                                            0.0003 -0.0293  0.0000  0.0004 -0.0175
                                            0.0009 -0.0004  0.0015  0.0021  0.0040
                                            0.0001 -0.0032  0.0000  0.0008  0.0018
                                           -0.0005  0.0008  0.0054  0.0001 -0.0038
                                           -0.0025
                ( 38.34%)   0.6192* H  12 s( 99.91%)p 0.00(  0.07%)d 0.00(  0.02%)
                                            0.9995  0.0006 -0.0002  0.0000 -0.0072
                                            0.0031  0.0002  0.0226 -0.0108  0.0004
                                           -0.0055  0.0010 -0.0006  0.0061 -0.0020
                                            0.0001  0.0000  0.0044  0.0009  0.0104
                                           -0.0010  0.0065 -0.0012
     5. (1.98956) BD ( 1) N   2 - N   3  
                ( 53.34%)   0.7303* N   2 s( 23.51%)p 3.24( 76.29%)d 0.01(  0.19%)
                                                  f 0.00(  0.01%)
                                            0.0000  0.4848 -0.0071 -0.0027 -0.0025
                                            0.2171  0.0161 -0.0011 -0.0034 -0.8307
                                            0.0380  0.0019  0.0016  0.1545  0.0145
                                           -0.0004 -0.0015 -0.0258 -0.0030 -0.0005
                                            0.0041  0.0042 -0.0009 -0.0266 -0.0025
                                            0.0021 -0.0067 -0.0086 -0.0050 -0.0167
                                            0.0001 -0.0024 -0.0019  0.0003 -0.0042
                                            0.0012  0.0030 -0.0062 -0.0002  0.0010
                                           -0.0002 -0.0024 -0.0033  0.0015  0.0015
                                           -0.0027
                ( 46.66%)   0.6831* N   3 s( 25.11%)p 2.97( 74.45%)d 0.02(  0.43%)
                                                  f 0.00(  0.02%)
                                            0.0001  0.5009 -0.0117 -0.0027 -0.0038
                                           -0.2725  0.0416 -0.0017  0.0016  0.8051
                                           -0.0081  0.0007 -0.0061 -0.1407  0.0189
                                           -0.0005  0.0004 -0.0102  0.0011 -0.0044
                                           -0.0006 -0.0009  0.0016 -0.0127 -0.0010
                                           -0.0033 -0.0470 -0.0050 -0.0033 -0.0414
                                            0.0039  0.0015  0.0010 -0.0033  0.0004
                                           -0.0024 -0.0048  0.0031  0.0020 -0.0022
                                            0.0012 -0.0031  0.0081 -0.0034 -0.0019
                                           -0.0050
     6. (1.98359) BD ( 1) N   2 - N   6  
                ( 52.60%)   0.7252* N   2 s( 23.82%)p 3.19( 76.00%)d 0.01(  0.17%)
                                                  f 0.00(  0.01%)
                                            0.0001  0.4879 -0.0118 -0.0009 -0.0020
                                            0.7266 -0.0121 -0.0020 -0.0032  0.4786
                                           -0.0375 -0.0003  0.0005  0.0315  0.0212
                                           -0.0006 -0.0012  0.0109  0.0098  0.0050
                                            0.0158  0.0018 -0.0021  0.0136 -0.0003
                                           -0.0020  0.0203  0.0042 -0.0001 -0.0237
                                            0.0026 -0.0032 -0.0009 -0.0022 -0.0041
                                            0.0042 -0.0002  0.0033 -0.0015  0.0018
                                           -0.0012  0.0006 -0.0005  0.0001  0.0020
                                           -0.0032
                ( 47.40%)   0.6885* N   6 s( 26.21%)p 2.80( 73.32%)d 0.02(  0.46%)
                                                  f 0.00(  0.02%)
                                           -0.0002  0.5117 -0.0133  0.0001 -0.0022
                                           -0.7656  0.0315  0.0002  0.0039 -0.3778
                                           -0.0161  0.0010  0.0039 -0.0515  0.0179
                                           -0.0001 -0.0012  0.0508  0.0026 -0.0062
                                           -0.0053  0.0016 -0.0021 -0.0039  0.0029
                                           -0.0011 -0.0062  0.0054 -0.0049 -0.0422
                                            0.0042  0.0021 -0.0005 -0.0020  0.0046
                                           -0.0055  0.0030 -0.0019 -0.0007  0.0017
                                            0.0004  0.0026 -0.0020  0.0071 -0.0041
                                            0.0051
     7. (1.98543) BD ( 1) N   3 - N   4  
                ( 50.00%)   0.7071* N   3 s( 33.20%)p 2.00( 66.31%)d 0.01(  0.47%)
                                                  f 0.00(  0.02%)
                                            0.0000  0.5747 -0.0415 -0.0002  0.0013
                                            0.8054 -0.0329  0.0028 -0.0046 -0.0696
                                            0.0511 -0.0030 -0.0003  0.0753 -0.0140
                                           -0.0002  0.0013  0.0169  0.0066 -0.0049
                                            0.0130 -0.0029  0.0016 -0.0071  0.0040
                                            0.0010  0.0426  0.0044  0.0086 -0.0454
                                            0.0097 -0.0012 -0.0019  0.0020 -0.0064
[...]
 ! R6    R(2,6)                  1.3062         -DE/DX =    0.0                 !
 ! R7    R(3,4)                  1.2954         -DE/DX =    0.0001              !
 ! R8    R(4,5)                  1.3467         -DE/DX =    0.0                 !
 ! R9    R(5,6)                  1.3237         -DE/DX =    0.0002              !
 ! R10   R(5,7)                  1.4839         -DE/DX =   -0.0001              !
 ! R11   R(7,8)                  1.196          -DE/DX =    0.0001              !
 ! R12   R(7,9)                  1.3363         -DE/DX =    0.0                 !
 ! R13   R(9,13)                 0.9668         -DE/DX =    0.0                 !
 ! A1    A(2,1,10)             107.1005         -DE/DX =    0.0                 !
 ! A2    A(2,1,11)             109.1327         -DE/DX =    0.0                 !
 ! A3    A(2,1,12)             109.1358         -DE/DX =    0.0                 !
 ! A4    A(10,1,11)            110.7386         -DE/DX =    0.0                 !
 ! A5    A(10,1,12)            110.7331         -DE/DX =    0.0                 !
 ! A6    A(11,1,12)            109.9321         -DE/DX =    0.0                 !
 ! A7    A(1,2,3)              122.618          -DE/DX =    0.0                 !
 ! A8    A(1,2,6)              123.3262         -DE/DX =    0.0                 !
 ! A9    A(3,2,6)              114.0558         -DE/DX =    0.0                 !
 ! A10   A(2,3,4)              106.374          -DE/DX =    0.0                 !
 ! A11   A(3,4,5)              105.8993         -DE/DX =    0.0                 !
 ! A12   A(4,5,6)              112.2003         -DE/DX =    0.0                 !
 ! A13   A(4,5,7)              125.4659         -DE/DX =    0.0                 !
 ! A14   A(6,5,7)              122.3338         -DE/DX =    0.0                 !
 ! A15   A(2,6,5)              101.4705         -DE/DX =    0.0                 !
 ! A16   A(5,7,8)              123.9389         -DE/DX =    0.0                 !
 ! A17   A(5,7,9)              111.6026         -DE/DX =    0.0                 !
 ! A18   A(8,7,9)              124.4585         -DE/DX =    0.0                 !
 ! A19   A(7,9,13)             107.1307         -DE/DX =    0.0                 !
 ! D1    D(10,1,2,3)             0.0265         -DE/DX =    0.0                 !
 ! D2    D(10,1,2,6)           180.0479         -DE/DX =    0.0                 !
 ! D3    D(11,1,2,3)           119.9521         -DE/DX =    0.0                 !
 ! D4    D(11,1,2,6)           -60.0265         -DE/DX =    0.0                 !
 ! D5    D(12,1,2,3)          -119.8944         -DE/DX =    0.0                 !
 ! D6    D(12,1,2,6)            60.127          -DE/DX =    0.0                 !
 ! D7    D(1,2,3,4)           -179.9851         -DE/DX =    0.0                 !
 ! D8    D(6,2,3,4)             -0.0047         -DE/DX =    0.0                 !
 ! D9    D(1,2,6,5)            179.9778         -DE/DX =    0.0                 !
 ! D10   D(3,2,6,5)             -0.0024         -DE/DX =    0.0                 !
 ! D11   D(2,3,4,5)              0.0095         -DE/DX =    0.0                 !
 ! D12   D(3,4,5,6)             -0.0118         -DE/DX =    0.0                 !
 ! D13   D(3,4,5,7)            179.9956         -DE/DX =    0.0                 !
 ! D14   D(4,5,6,2)              0.0086         -DE/DX =    0.0                 !
 ! D15   D(7,5,6,2)           -179.9985         -DE/DX =    0.0                 !
 ! D16   D(4,5,7,8)            179.9864         -DE/DX =    0.0                 !
 ! D17   D(4,5,7,9)             -0.0035         -DE/DX =    0.0                 !
 ! D18   D(6,5,7,8)             -0.0055         -DE/DX =    0.0                 !
 ! D19   D(6,5,7,9)            180.0047         -DE/DX =    0.0                 !
 ! D20   D(5,7,9,13)          -180.0064         -DE/DX =    0.0                 !
 ! D21   D(8,7,9,13)             0.0038         -DE/DX =    0.0                 !
 --------------------------------------------------------------------------------
 GradGradGradGradGradGradGradGradGradGradGradGradGradGradGradGradGradGrad


 ----------------------------------------------------------------------

 Electric dipole moment (input orientation):
 (Debye = 10**-18 statcoulomb cm , SI units = C m)
                  (au)            (Debye)         (10**-30 SI)
   Tot        0.103373D+01      0.262748D+01      0.876434D+01
   x          0.700452D+00      0.178037D+01      0.593868D+01
   y         -0.847904D-01     -0.215516D+00     -0.718883D+00
   z         -0.755499D+00     -0.192029D+01     -0.640538D+01

 Dipole polarizability, Alpha (input orientation).
 (esu units = cm**3 , SI units = C**2 m**2 J**-1)
 Alpha(0;0):
               (au)            (10**-24 esu)      (10**-40 SI)
   iso        0.703901D+02      0.104307D+02      0.116058D+02
   aniso      0.438779D+02      0.650203D+01      0.723448D+01
   xx         0.769093D+02      0.113968D+02      0.126806D+02
   yx        -0.436796D+01     -0.647265D+00     -0.720180D+00
   yy         0.455970D+02      0.675678D+01      0.751794D+01
   zx        -0.112527D+02     -0.166747D+01     -0.185531D+01
   zy         0.699992D+00      0.103728D+00      0.115413D+00
   zz         0.886639D+02      0.131386D+02      0.146187D+02

 ----------------------------------------------------------------------

 Dipole orientation:
     6         -4.75324944          0.71775700          6.84154918
     7         -5.09909562          0.66495326          4.12384717
     7         -7.32601658          0.32480446          3.05981750
     7         -6.95119263          0.38146017          0.64141870
     6         -4.45399801          0.76213604          0.33167173
     7         -3.24802631          0.94693539          2.51548982
     6         -3.13222198          0.96298333         -2.13323204
     8         -0.90820653          1.30248307         -2.34842673
     8         -4.73420760          0.71803062         -4.06992195
     1         -6.59740673          0.43514130          7.68927478
     1         -3.46530466         -0.78529698          7.38518557
     1         -3.97454306          2.53745086          7.38554589
     1         -3.75192093          0.86758100         -5.60304419

 Electric dipole moment (dipole orientation):
 (Debye = 10**-18 statcoulomb cm , SI units = C m)
                  (au)            (Debye)         (10**-30 SI)
   Tot        0.103373D+01      0.262748D+01      0.876434D+01
   x          0.000000D+00      0.000000D+00      0.000000D+00
   y          0.000000D+00      0.000000D+00      0.000000D+00
   z          0.103373D+01      0.262748D+01      0.876434D+01

 Dipole polarizability, Alpha (dipole orientation).
 (esu units = cm**3 , SI units = C**2 m**2 J**-1)
 Alpha(0;0):
               (au)            (10**-24 esu)      (10**-40 SI)
   iso        0.703901D+02      0.104307D+02      0.116058D+02
   aniso      0.438779D+02      0.650203D+01      0.723448D+01
   xx         0.708940D+02      0.105054D+02      0.116888D+02
   yx         0.395224D+01      0.585662D+00      0.651637D+00
   yy         0.455845D+02      0.675493D+01      0.751587D+01
   zx        -0.474985D+01     -0.703855D+00     -0.783144D+00
   zy        -0.710907D+00     -0.105346D+00     -0.117213D+00
   zz         0.946917D+02      0.140319D+02      0.156126D+02

 ----------------------------------------------------------------------
 Unable to Open any file for archive entry.
 1\1\GINC-AE02\Freq\RM062X\Aug-CC-pVTZ\C3H4N4O2\DHUANG\04-Mar-2025\0\\#
 N Geom=AllCheck Guess=TCheck SCRF=Check GenChk RM062X/Aug-CC-pVTZ Freq
 \\2\\0,1\C,0.5928836224,-0.7560704052,-4.3191594946\N,-0.5151672345,-0
 .6161513256,-3.3943975476\N,-1.756750454,-0.4285082828,-3.7961545303\N
 ,-2.4791411943,-0.347032913,-2.7239867\C,-1.6257558586,-0.4918172383,-
 1.6922549471\N,-0.3769614769,-0.6635251377,-2.0963958437\C,-1.99909316
 3,-0.4682387375,-0.2562958364\O,-1.2173178643,-0.6000642707,0.63912746
 09\O,-3.3122248802,-0.2822785684,-0.0923400367\H,0.1846376336,-0.67522
 99458,-5.320538147\H,1.3141128483,0.0345084282,-4.1328332196\H,1.05978
 69811,-1.7256481056,-4.1713454103\H,-3.4825780697,-0.2778731176,0.8592
 986125\\Version=ES64L-G16RevC.01\State=1-A\HF=-486.1502858\RMSD=2.274e
 -09\RMSF=6.329e-05\ZeroPoint=0.0914507\Thermal=0.0992215\ETot=-486.051
 0644\HTot=-486.0501202\GTot=-486.0924009\Dipole=0.7004521,-0.0847904,-
 0.7554986\DipoleDeriv=0.3736841,-0.0228575,-0.2063239,-0.0216475,0.187
 6065,0.0266029,-0.2604782,0.0344935,0.3311065,-0.1656745,0.0231607,0.1
 045863,0.018547,0.0075712,-0.0105673,0.3265285,-0.0425781,-0.2081795,0
 .284808,-0.0579195,-0.0213854,-0.0566412,-0.1117796,0.0075976,-0.08607
 56,0.0168536,-0.3294307,-0.2992426,0.0176084,0.0927284,0.0128937,-0.16
 51872,-0.0118979,0.3169179,-0.0441817,-0.2354548,-0.0300902,0.0176346,
 0.1712571,0.0192896,0.1147682,-0.021946,0.0919477,-0.0104346,-0.015985
 3,-0.2677353,0.0233341,-0.0842499,0.0283272,-0.1221897,0.010857,-0.319
 7016,0.0448382,-0.0541864,1.8296437,-0.2092356,-0.1165354,-0.2082029,0
 .3929828,-0.0148219,-0.1656357,-0.0077782,1.8623588,-0.8150937,0.06835
 91,-0.1863513,0.0700169,-0.3796169,0.04393,-0.2623745,0.0548658,-1.173
 7099,-1.3278666,0.1348115,0.2669475,0.1326494,-0.3729736,-0.0343736,0.
 3665998,-0.0487493,-0.5510014,0.0364292,0.0103198,-0.0492717,0.0087126
 ,0.0988406,0.0088693,0.0236001,-0.0016769,0.0210102,0.0029017,-0.01557
 88,0.0615923,-0.0587852,0.019417,-0.0194353,0.0199692,-0.053297,0.0354
 855,0.0237417,0.0111231,0.0650586,0.0558202,-0.0040839,-0.0001251,0.03
 65845,0.0438039,0.0380277,0.3544946,-0.00076,-0.0980525,-0.0009797,0.3
 346448,0.0153103,-0.087882,0.0138409,0.2799593\Polar=76.9092945,-4.367
 9612,45.5970328,-11.252666,0.6999917,88.6639141\Quadrupole=-0.3754542,
 -0.9902168,1.365671,0.1763446,-12.0858853,1.6944107\PG=C01 [X(C3H4N4O2
 )]\NImag=0\\0.55502618,0.00427748,0.59496817,0.07206724,-0.00992814,0.
 57494460,-0.18825821,0.01681164,0.06111418,0.74947657,0.01668804,-0.06
 478616,-0.00683640,-0.07949980,0.18764681,0.06777727,-0.00778227,-0.15
 532307,-0.14790866,0.00860500,0.77638570,-0.02502833,0.00189465,0.0056
 5273,-0.21837160,0.02129678,-0.07943924,0.44978560,0.00151096,-0.01123
 878,-0.00130942,0.02059356,-0.08551235,0.01286159,-0.04690979,0.130708
 26,0.02354489,-0.00387963,0.01184167,-0.04506389,0.00789448,-0.1475043
 8,-0.00571096,-0.01050185,0.65855463,-0.00328095,0.00225534,-0.0078857
 4,-0.13822211,0.02351888,0.00885821,-0.16973004,0.00821592,0.09008322,
 0.58297093,0.00213289,0.01085077,0.00120527,0.02138312,0.02307453,-0.0
 0005476,0.00744279,-0.10044917,-0.00884204,-0.06567821,0.13143712,-0.0
 0219697,0.00037342,0.00838643,0.11018437,-0.01467227,-0.03224640,0.126
 53390,-0.01409231,-0.29563646,-0.03852297,-0.00287293,0.52106961,0.000
 27389,0.00072022,-0.00701528,-0.03814661,0.00480315,0.12679002,0.02606
 757,0.00113191,-0.05910680,-0.20026166,0.01822132,-0.08437405,0.673394
 91,0.00069202,0.00409543,0.00125148,0.00702178,0.01293023,-0.01571220,
 -0.00138800,0.02521375,0.01192764,0.01841158,-0.08915825,0.01432295,-0
 .07116002,0.17731341,-0.00604580,0.00111032,-0.00713712,0.02113417,-0.
 00046928,-0.10851662,0.06039891,-0.00531575,-0.13557370,-0.09297740,0.
 01556370,-0.18872983,-0.08991438,-0.00090145,0.82494955,0.01198747,-0.
 00332510,0.03368114,-0.11839227,0.00466803,-0.00701037,-0.06624734,0.0
 1480546,-0.00159305,-0.08290385,0.01878875,-0.10049173,-0.33710613,0.0
 3514657,0.06066241,0.59931574,-0.00258514,-0.00562252,-0.00438988,0.00
 530910,-0.08786039,0.00586587,0.01664896,0.03370269,0.00291066,0.01609
 001,0.02995607,0.01471596,0.03512580,-0.08958335,-0.00809222,-0.070355
 00,0.12250609,-0.00096201,0.00059960,-0.02775048,-0.03734565,0.0102689
 4,-0.31699190,-0.08834735,0.01542418,-0.09082780,0.02673815,-0.0036383
 1,0.02245960,0.06158048,-0.00822892,-0.11617003,0.00344462,-0.00961922
 ,0.54370949,0.00005882,0.00016365,0.00145789,-0.01351810,0.00310986,0.
 00120397,0.00123859,0.00163471,-0.01483724,0.01398055,-0.00301546,-0.0
 1260053,-0.09695931,0.00192945,0.04856038,-0.00489980,-0.00105829,0.03
 239809,0.79348899,0.00012434,0.00139091,-0.00013403,0.00305866,0.00777
 948,-0.00044121,0.00162576,0.01011503,0.00221983,-0.00329674,-0.008334
 56,0.00215819,0.00216021,-0.07671499,-0.00412409,-0.00069787,-0.007295
 14,-0.00442967,-0.08781106,0.22752390,0.00329030,-0.00039481,-0.002308
 53,0.00373003,-0.00080867,0.02112195,-0.01464704,0.00218858,0.00668374
 ,0.00085128,0.00022467,-0.02512629,0.03740896,-0.00252550,-0.21290875,
 0.01543013,-0.00197841,-0.01921743,0.19701852,-0.04268925,0.88681570,-
 0.00008236,-0.00001007,0.00023541,0.00127154,-0.00014202,-0.00446552,0
 .00242017,-0.00080089,0.00192661,0.00045366,0.00045820,0.00086347,0.00
 836050,0.00208188,-0.01529949,-0.00289253,0.00042492,0.00405972,-0.383
 12623,0.05073094,-0.32580446,0.46016845,0.00002437,-0.00011810,-0.0000
 6458,-0.00017229,-0.00035297,0.00077665,-0.00083301,-0.00272367,-0.000
 19346,0.00031147,0.00370852,0.00002128,0.00248692,0.02010124,0.0036801
 0,0.00060197,0.00057169,-0.00069579,0.05057890,-0.08797715,0.05614696,
 -0.07004000,0.04476260,-0.00138666,0.00016870,0.00134422,-0.00302841,0
 .00056922,-0.00665528,0.00351450,-0.00042248,-0.00685545,0.00773588,-0
 .00097102,-0.00308106,-0.03440609,0.00644121,-0.04914969,-0.00434554,0
 .00051654,0.00585499,-0.31855240,0.05509786,-0.50971701,0.39719465,-0.
 06819119,0.54587903,0.00100163,-0.00016977,-0.00030170,0.00219366,-0.0
 0047278,0.00350556,-0.00331920,0.00030175,0.00415184,-0.00112072,0.000
 37900,-0.00238525,-0.02492330,0.00488651,0.01339499,0.00288050,-0.0002
 1770,0.00077154,-0.29435958,0.03244988,0.02341985,-0.09235516,0.018582
 75,-0.04066282,0.46479876,-0.00015068,-0.00020049,0.00003493,-0.000454
 99,-0.00049771,-0.00042634,0.00035400,-0.00065402,-0.00060351,0.000294
 42,0.00110125,0.00040878,0.00422319,0.01033968,-0.00151546,-0.00017373
 ,0.00151032,0.00004170,0.03185716,-0.07056403,-0.00187291,0.01878981,0
 .02761971,0.00597658,-0.05947380,0.04750842,-0.00121287,0.00016576,0.0
 0019733,0.00264228,-0.00030146,-0.00436009,0.00172379,-0.00025286,-0.0
 0038562,0.00158024,-0.00016456,-0.00189258,0.04487575,-0.00605530,-0.0
 0890799,-0.00131250,0.00034174,-0.00573135,0.05118557,-0.00587804,-0.1
 3712820,-0.05036738,0.00737596,0.02533405,-0.09285430,0.00094026,0.626
 75512,-0.09440392,0.00891169,-0.11084821,0.01098336,-0.00265804,0.0324
 6977,0.00067554,-0.00007303,0.00091804,0.00045151,-0.00015625,-0.00018
 342,-0.00042849,0.00013538,0.00191397,-0.00508583,0.00080513,0.0014073
 5,-0.00042991,0.00008132,-0.00033276,0.00007397,-0.00001417,0.00008799
 ,-0.00014881,0.00001265,0.00024249,0.09839354,0.00854905,-0.05116834,0
 .02122689,-0.00177450,-0.00217786,-0.00416854,0.00001326,0.00029119,-0
 .00016548,-0.00016848,-0.00062742,0.00001559,0.00018247,0.00076290,-0.
 00024066,0.00075234,0.00062428,-0.00017771,0.00006761,0.00006688,0.000
 04146,-0.00001202,-0.00000841,-0.00001177,0.00001512,-0.00002628,-0.00
 003124,-0.00980489,0.04803656,-0.09421311,0.01882319,-0.28799974,-0.00
 811720,0.00169209,-0.02651755,-0.00313046,0.00041961,0.00178101,0.0004
 2277,-0.00007417,-0.00007452,-0.00040103,0.00009350,-0.00091389,0.0041
 2055,-0.00056185,-0.00062942,0.00025583,-0.00004347,0.00037600,-0.0000
 0453,0.00000158,-0.00005478,0.00012993,-0.00001506,-0.00019869,0.10319
 355,-0.02079997,0.31591899,-0.16346853,-0.13033374,-0.03219140,-0.0271
 7243,-0.01661010,-0.00093380,0.00090691,-0.00299235,0.00279105,-0.0009
 3831,0.00176055,0.00217222,-0.00200404,0.00077229,-0.00027519,0.001739
 21,-0.00039019,-0.00278046,0.00008946,0.00004064,-0.00060567,0.0000903
 0,-0.00000034,0.00030907,-0.00010360,0.00000168,0.00015553,-0.00582070
 ,-0.00701335,-0.00133525,0.18511300,-0.13669490,-0.20243095,-0.0376924
 6,0.00500242,0.00748250,0.00233017,0.00139178,0.00034270,-0.00076646,0
 .00064983,-0.00086760,0.00010928,-0.00030406,0.00011584,0.00021259,0.0
 0011295,0.00032918,-0.00008452,-0.00007757,-0.00000744,-0.00002389,0.0
 0004253,-0.00000540,0.00000243,0.00005347,-0.00000880,-0.00001027,0.00
 414333,0.00346341,0.00012690,0.14482177,0.21060921,-0.03921304,-0.0416
 0071,-0.05978470,0.02409590,0.01709626,0.00053596,-0.00293265,0.002030
 76,-0.00113886,0.00155921,-0.00105095,-0.00274849,0.00209400,-0.000342
 11,0.00074783,-0.00121627,0.00016083,0.00282688,0.00010755,-0.00037223
 ,0.00053239,-0.00016877,0.00005836,-0.00025679,0.00000742,0.00004484,-
 0.00011478,-0.01798381,-0.02279647,-0.00139316,0.03023271,0.04214709,0
 .05974612,-0.09383004,0.09883881,-0.01620456,-0.02134894,0.02527274,-0
 .00060230,0.00129968,0.00259373,0.00301533,-0.00160829,-0.00163766,0.0
 0199529,-0.00197458,-0.00014462,-0.00034516,0.00172317,0.00009792,-0.0
 0264736,0.00009395,-0.00004841,-0.00058036,0.00007057,-0.00003442,0.00
 029691,-0.00011215,0.00002248,0.00015349,-0.00422332,0.00918884,-0.000
 94437,0.01154150,-0.01913606,0.00342905,0.10833225,0.10546327,-0.27554
 348,0.03667227,0.00270758,0.00263165,-0.00187104,-0.00152664,0.0000010
 0,-0.00001644,-0.00050867,-0.00021884,-0.00061385,0.00082601,0.0000910
 4,-0.00014831,-0.00046713,0.00032508,0.00075666,0.00003848,-0.00003044
 ,0.00017021,-0.00005690,0.00001732,-0.00007841,-0.00002294,0.00000171,
 -0.00002935,-0.00138804,0.00076567,0.00034115,0.00997570,-0.01902965,0
 .00459156,-0.11503851,0.29098967,-0.02154795,0.04236040,-0.05628462,0.
 01826871,-0.02297748,-0.00042816,-0.00343927,-0.00105459,-0.00118409,0
 .00177725,0.00066088,-0.00272807,0.00212582,-0.00028912,0.00074020,-0.
 00123932,0.00008525,0.00284060,0.00020755,0.00030361,0.00055063,-0.000
 17884,0.00000288,-0.00025968,-0.00000638,-0.00004027,-0.00011713,-0.01
 088702,0.02710837,-0.00030015,0.00248420,-0.00635195,0.00103104,0.0124
 5532,-0.03977913,0.05612410,0.00000435,-0.00003480,0.00023831,-0.00049
 484,0.00002526,-0.00024490,0.00030246,-0.00001194,-0.00011904,0.000209
 27,-0.00007905,-0.00099434,-0.00629275,0.00161518,-0.00120741,-0.00011
 835,0.00010448,0.00168288,-0.01565743,0.00158234,0.06082123,0.00554712
 ,-0.00149216,-0.00675707,-0.05443202,0.00469784,0.04318792,-0.00003695
 ,0.00000456,0.00002331,0.00002723,-0.00000550,-0.00001130,0.00003620,-
 0.00000220,-0.00002007,0.07090569,-0.00003171,-0.00019647,-0.00003592,
 0.00001372,-0.00035777,0.00001709,-0.00001054,0.00020337,0.00001627,-0
 .00009534,-0.00047242,0.00012593,0.00158289,0.00449306,0.00024050,0.00
 014277,0.00083601,-0.00021695,0.00258257,0.00404755,-0.00847844,-0.001
 46639,-0.00559537,0.00090233,0.00368852,-0.01612975,0.00389935,0.00000
 494,-0.00000259,-0.00000349,-0.00003258,0.00000700,0.00003275,0.000025
 15,-0.00000073,-0.00002884,-0.00640401,0.01316813,0.00009872,-0.000015
 83,-0.00012600,0.00029417,-0.00006043,0.00049986,-0.00017686,0.0000245
 2,0.00024531,-0.00022010,0.00001422,0.00034807,0.00034258,0.00001781,0
 .00157004,-0.00013007,0.00004474,-0.00037316,0.01359482,-0.00166749,-0
 .00967419,-0.00799086,0.00108125,-0.00238257,0.09082931,-0.00297353,-0
 .49345007,0.00000207,-0.00000048,0.00000591,-0.00002301,0.00000110,0.0
 0001656,-0.00002127,0.00000470,0.00001533,-0.09659952,0.00352942,0.503
 30491\\-0.00006884,0.00002687,0.00004746,0.00005281,-0.00002368,-0.000
 04254,-0.00005646,0.00002556,0.00002454,0.00007671,-0.00003821,-0.0000
 4848,0.00018766,0.00000077,-0.00011383,-0.00021568,0.00000982,0.000075
 54,0.00007611,0.00001595,0.00011660,-0.00006217,-0.00000080,-0.0000542
 3,-0.00001744,-0.00000554,0.00001467,0.00000079,-0.00000266,0.00001296
 ,0.00002135,-0.00000577,-0.00000955,0.00002086,-0.00000417,-0.00001279
 ,-0.00001569,0.00000185,-0.00001034\\\@
 The archive entry for this job was punched.


 NATURE WILL TELL YOU A DIRECT LIE IF SHE CAN.

                                -- CHARLES DARWIN
 Job cpu time:       0 days  5 hours 17 minutes  5.0 seconds.
 Elapsed time:       0 days  0 hours 15 minutes 51.8 seconds.
 File lengths (MBytes):  RWF=    270 Int=      0 D2E=      0 Chk=     21 Scr=      1
 Normal termination of Gaussian 16 at Tue Mar  4 18:19:26 2025.
