 Entering Gaussian System, Link 0=g16
 Initial command:
 /usr/local/gaussian16c01/g16/l1.exe "/scr/dhuang/Gau-220557.inp" -scrdir="/scr/dhuang/"
 Entering Link 1 = /usr/local/gaussian16c01/g16/l1.exe PID=    220558.
  
 Copyright (c) 1988-2019, Gaussian, Inc.  All Rights Reserved.
  
 This is part of the Gaussian(R) 16 program.  It is based on
 the Gaussian(R) 09 system (copyright 2009, Gaussian, Inc.),
 the Gaussian(R) 03 system (copyright 2003, Gaussian, Inc.),
 the Gaussian(R) 98 system (copyright 1998, Gaussian, Inc.),
 the Gaussian(R) 94 system (copyright 1995, Gaussian, Inc.),
 the Gaussian 92(TM) system (copyright 1992, Gaussian, Inc.),
 the Gaussian 90(TM) system (copyright 1990, Gaussian, Inc.),
 the Gaussian 88(TM) system (copyright 1988, Gaussian, Inc.),
 the Gaussian 86(TM) system (copyright 1986, Carnegie Mellon
 University), and the Gaussian 82(TM) system (copyright 1983,
 Carnegie Mellon University). Gaussian is a federally registered
 trademark of Gaussian, Inc.
  
 This software contains proprietary and confidential information,
 including trade secrets, belonging to Gaussian, Inc.
  
 This software is provided under written license and may be
 used, copied, transmitted, or stored only in accord with that
 written license.
  
 The following legend is applicable only to US Government
 contracts under FAR:
  
                    RESTRICTED RIGHTS LEGEND
  
 Use, reproduction and disclosure by the US Government is
 subject to restrictions as set forth in subparagraphs (a)
 and (c) of the Commercial Computer Software - Restricted
 Rights clause in FAR 52.227-19.
  
 Gaussian, Inc.
 340 Quinnipiac St., Bldg. 40, Wallingford CT 06492
  
  
 ---------------------------------------------------------------
 Warning -- This program may not be used in any manner that
 competes with the business of Gaussian, Inc. or will provide
 assistance to any competitor of Gaussian, Inc.  The licensee
 of this program is prohibited from giving any competitor of
 Gaussian, Inc. access to this program.  By using this program,
 the user acknowledges that Gaussian, Inc. is engaged in the
 business of creating and licensing software in the field of
 computational chemistry and represents and warrants to the
 licensee that it is not a competitor of Gaussian, Inc. and that
 it will not use this program in any manner prohibited above.
 ---------------------------------------------------------------
  

 Cite this work as:
 Gaussian 16, Revision C.01,
 M. J. Frisch, G. W. Trucks, H. B. Schlegel, G. E. Scuseria, 
 M. A. Robb, J. R. Cheeseman, G. Scalmani, V. Barone, 
 G. A. Petersson, H. Nakatsuji, X. Li, M. Caricato, A. V. Marenich, 
 J. Bloino, B. G. Janesko, R. Gomperts, B. Mennucci, H. P. Hratchian, 
 J. V. Ortiz, A. F. Izmaylov, J. L. Sonnenberg, D. Williams-Young, 
 F. Ding, F. Lipparini, F. Egidi, J. Goings, B. Peng, A. Petrone, 
 T. Henderson, D. Ranasinghe, V. G. Zakrzewski, J. Gao, N. Rega, 
 G. Zheng, W. Liang, M. Hada, M. Ehara, K. Toyota, R. Fukuda, 
 J. Hasegawa, M. Ishida, T. Nakajima, Y. Honda, O. Kitao, H. Nakai, 
 T. Vreven, K. Throssell, J. A. Montgomery, Jr., J. E. Peralta, 
 F. Ogliaro, M. J. Bearpark, J. J. Heyd, E. N. Brothers, K. N. Kudin, 
 V. N. Staroverov, T. A. Keith, R. Kobayashi, J. Normand, 
 K. Raghavachari, A. P. Rendell, J. C. Burant, S. S. Iyengar, 
 J. Tomasi, M. Cossi, J. M. Millam, M. Klene, C. Adamo, R. Cammi, 
 J. W. Ochterski, R. L. Martin, K. Morokuma, O. Farkas, 
 J. B. Foresman, and D. J. Fox, Gaussian, Inc., Wallingford CT, 2019.
 
 ******************************************
 Gaussian 16:  ES64L-G16RevC.01  3-Jul-2019
                 4-Mar-2025 
 ******************************************
 %nprocshared=20
 Will use up to   20 processors via shared memory.
 %mem=10000MW
 %chk=20.chk
 ------------------------------------
 # opt freq m062x/aug-cc-pvtz pop=nbo
 ------------------------------------
 1/18=20,19=15,26=3,38=1/1,3;
 2/9=110,12=2,17=6,18=5,40=1/2;
 3/5=16,6=1,7=10,11=2,25=1,30=1,71=1,74=-55/1,2,3;
 4//1;
 5/5=2,38=5/2;
 6/7=2,8=2,9=2,10=2,28=1,40=1/1,7;
 7//1,2,3,16;
 1/18=20,19=15,26=3/3(2);
 2/9=110/2;
 99//99;
 2/9=110/2;
 3/5=16,6=1,7=10,11=2,25=1,30=1,71=1,74=-55/1,2,3;
 4/5=5,16=3,69=1/1;
 5/5=2,38=5/2;
 7//1,2,3,16;
 1/18=20,19=15,26=3/3(-5);
 2/9=110/2;
 6/7=2,8=2,9=2,10=2,19=2,28=1,40=1/1,7;
 99/9=1/99;
 --
 20
 --
 Symbolic Z-matrix:
 Charge =  0 Multiplicity = 1
 C                     2.23584   1.5529    1.16939 
 C                     2.79089   1.21316   2.34857 
 C                     2.22859   1.56076   3.51562 
 C                     1.08485   2.26452   3.5884 
 C                     0.53987   2.59783   2.40327 
 C                     1.08587   2.26035   1.22185 
 F                     0.43845   2.65692   0.13566 
 O                     0.57499   2.57965   4.82527 
 C                    -0.62434   3.31497   4.89807 
 C                     2.8414    1.1785   -0.0014 
 O                     2.37972   1.46042  -1.0919 
 O                     4.0012    0.4652   -0.0023 
 H                     3.72712   0.63725   2.41816 
 H                     2.72145   1.2588    4.45633 
 H                    -0.39798   3.17467   2.36725 
 H                    -0.86621   3.46474   5.97422 
 H                    -0.49362   4.31573   4.42922 
 H                    -1.45737   2.74363   4.43123 
 H                     4.3106    0.27341  -0.89852 
 

 GradGradGradGradGradGradGradGradGradGradGradGradGradGradGradGradGradGrad
 Berny optimization.
 Initialization pass.
                           ----------------------------
                           !    Initial Parameters    !
                           ! (Angstroms and Degrees)  !
 --------------------------                            --------------------------
 ! Name  Definition              Value          Derivative Info.                !
 --------------------------------------------------------------------------------
 ! R1    R(1,2)                  1.3468         estimate D2E/DX2                !
 ! R2    R(1,6)                  1.3512         estimate D2E/DX2                !
 ! R3    R(1,10)                 1.3703         estimate D2E/DX2                !
 ! R4    R(2,3)                  1.3413         estimate D2E/DX2                !
 ! R5    R(2,13)                 1.1014         estimate D2E/DX2                !
 ! R6    R(3,4)                  1.3449         estimate D2E/DX2                !
 ! R7    R(3,14)                 1.1041         estimate D2E/DX2                !
 ! R8    R(4,5)                  1.3463         estimate D2E/DX2                !
 ! R9    R(4,8)                  1.3744         estimate D2E/DX2                !
 ! R10   R(5,6)                  1.3445         estimate D2E/DX2                !
 ! R11   R(5,15)                 1.1016         estimate D2E/DX2                !
 ! R12   R(6,7)                  1.3252         estimate D2E/DX2                !
 ! R13   R(8,9)                  1.4087         estimate D2E/DX2                !
 ! R14   R(9,16)                 1.1131         estimate D2E/DX2                !
 ! R15   R(9,17)                 1.1129         estimate D2E/DX2                !
 ! R16   R(9,18)                 1.1128         estimate D2E/DX2                !
 ! R17   R(10,11)                1.2173         estimate D2E/DX2                !
 ! R18   R(10,12)                1.3616         estimate D2E/DX2                !
 ! R19   R(12,19)                0.9673         estimate D2E/DX2                !
 ! A1    A(2,1,6)              116.6687         estimate D2E/DX2                !
 ! A2    A(2,1,10)             119.8026         estimate D2E/DX2                !
 ! A3    A(6,1,10)             123.5287         estimate D2E/DX2                !
 ! A4    A(1,2,3)              121.5773         estimate D2E/DX2                !
 ! A5    A(1,2,13)             122.5164         estimate D2E/DX2                !
 ! A6    A(3,2,13)             115.9062         estimate D2E/DX2                !
 ! A7    A(2,3,4)              122.6312         estimate D2E/DX2                !
 ! A8    A(2,3,14)             118.9032         estimate D2E/DX2                !
 ! A9    A(4,3,14)             118.4656         estimate D2E/DX2                !
 ! A10   A(3,4,5)              115.2236         estimate D2E/DX2                !
 ! A11   A(3,4,8)              118.9569         estimate D2E/DX2                !
 ! A12   A(5,4,8)              125.8195         estimate D2E/DX2                !
 ! A13   A(4,5,6)              123.1585         estimate D2E/DX2                !
 ! A14   A(4,5,15)             120.1997         estimate D2E/DX2                !
 ! A15   A(6,5,15)             116.6417         estimate D2E/DX2                !
 ! A16   A(1,6,5)              120.7406         estimate D2E/DX2                !
 ! A17   A(1,6,7)              122.7274         estimate D2E/DX2                !
 ! A18   A(5,6,7)              116.532          estimate D2E/DX2                !
 ! A19   A(4,8,9)              118.8164         estimate D2E/DX2                !
 ! A20   A(8,9,16)             107.7696         estimate D2E/DX2                !
 ! A21   A(8,9,17)             110.3429         estimate D2E/DX2                !
 ! A22   A(8,9,18)             110.3442         estimate D2E/DX2                !
 ! A23   A(16,9,17)            108.1704         estimate D2E/DX2                !
 ! A24   A(16,9,18)            108.1796         estimate D2E/DX2                !
 ! A25   A(17,9,18)            111.895          estimate D2E/DX2                !
 ! A26   A(1,10,11)            122.3122         estimate D2E/DX2                !
 ! A27   A(1,10,12)            121.3415         estimate D2E/DX2                !
 ! A28   A(11,10,12)           116.3463         estimate D2E/DX2                !
 ! A29   A(10,12,19)           112.1435         estimate D2E/DX2                !
 ! D1    D(6,1,2,3)             -0.0019         estimate D2E/DX2                !
 ! D2    D(6,1,2,13)           179.9937         estimate D2E/DX2                !
 ! D3    D(10,1,2,3)          -179.9923         estimate D2E/DX2                !
 ! D4    D(10,1,2,13)            0.0033         estimate D2E/DX2                !
 ! D5    D(2,1,6,5)             -0.0025         estimate D2E/DX2                !
 ! D6    D(2,1,6,7)           -179.9952         estimate D2E/DX2                !
 ! D7    D(10,1,6,5)           179.9875         estimate D2E/DX2                !
 ! D8    D(10,1,6,7)            -0.0052         estimate D2E/DX2                !
 ! D9    D(2,1,10,11)          179.9764         estimate D2E/DX2                !
 ! D10   D(2,1,10,12)           -0.0148         estimate D2E/DX2                !
 ! D11   D(6,1,10,11)           -0.0133         estimate D2E/DX2                !
 ! D12   D(6,1,10,12)          179.9955         estimate D2E/DX2                !
 ! D13   D(1,2,3,4)             -0.0031         estimate D2E/DX2                !
 ! D14   D(1,2,3,14)           179.9931         estimate D2E/DX2                !
 ! D15   D(13,2,3,4)          -179.999          estimate D2E/DX2                !
 ! D16   D(13,2,3,14)           -0.0027         estimate D2E/DX2                !
 ! D17   D(2,3,4,5)              0.0119         estimate D2E/DX2                !
 ! D18   D(2,3,4,8)            179.9876         estimate D2E/DX2                !
 ! D19   D(14,3,4,5)          -179.9844         estimate D2E/DX2                !
 ! D20   D(14,3,4,8)            -0.0087         estimate D2E/DX2                !
 ! D21   D(3,4,5,6)             -0.0165         estimate D2E/DX2                !
 ! D22   D(3,4,5,15)           179.9959         estimate D2E/DX2                !
 ! D23   D(8,4,5,6)           -179.9903         estimate D2E/DX2                !
 ! D24   D(8,4,5,15)             0.022          estimate D2E/DX2                !
 ! D25   D(3,4,8,9)           -179.8954         estimate D2E/DX2                !
 ! D26   D(5,4,8,9)              0.0775         estimate D2E/DX2                !
 ! D27   D(4,5,6,1)              0.0123         estimate D2E/DX2                !
 ! D28   D(4,5,6,7)           -179.9945         estimate D2E/DX2                !
 ! D29   D(15,5,6,1)          -179.9996         estimate D2E/DX2                !
 ! D30   D(15,5,6,7)            -0.0065         estimate D2E/DX2                !
 ! D31   D(4,8,9,16)           179.9653         estimate D2E/DX2                !
 ! D32   D(4,8,9,17)           -62.1255         estimate D2E/DX2                !
 ! D33   D(4,8,9,18)            62.0442         estimate D2E/DX2                !
 ! D34   D(1,10,12,19)         180.0            estimate D2E/DX2                !
 ! D35   D(11,10,12,19)          0.0083         estimate D2E/DX2                !
 --------------------------------------------------------------------------------
 Trust Radius=3.00D-01 FncErr=1.00D-07 GrdErr=1.00D-06 EigMax=2.50D+02 EigMin=1.00D-04
 Number of steps in this run=     93 maximum allowed number of steps=    114.
 GradGradGradGradGradGradGradGradGradGradGradGradGradGradGradGradGradGrad

                          Input orientation:                          
 ---------------------------------------------------------------------
 Center     Atomic      Atomic             Coordinates (Angstroms)
 Number     Number       Type             X           Y           Z
 ---------------------------------------------------------------------
      1          6           0        2.235838    1.552903    1.169394
      2          6           0        2.790893    1.213163    2.348571
      3          6           0        2.228594    1.560758    3.515617
      4          6           0        1.084851    2.264522    3.588402
      5          6           0        0.539874    2.597831    2.403272
      6          6           0        1.085867    2.260349    1.221854
      7          9           0        0.438453    2.656923    0.135662
      8          8           0        0.574995    2.579647    4.825273
      9          6           0       -0.624341    3.314969    4.898067
     10          6           0        2.841400    1.178500   -0.001400
     11          8           0        2.379716    1.460424   -1.091897
     12          8           0        4.001200    0.465200   -0.002300
     13          1           0        3.727118    0.637251    2.418161
     14          1           0        2.721455    1.258797    4.456332
     15          1           0       -0.397981    3.174669    2.367251
     16          1           0       -0.866214    3.464736    5.974223
     17          1           0       -0.493622    4.315732    4.429215
     18          1           0       -1.457373    2.743627    4.431234
     19          1           0        4.310598    0.273406   -0.898518
 ---------------------------------------------------------------------
                    Distance matrix (angstroms):
                    1          2          3          4          5
     1  C    0.000000
     2  C    1.346836   0.000000
     3  C    2.346247   1.341268   0.000000
     4  C    2.771782   2.356505   1.344890   0.000000
     5  C    2.343208   2.643366   2.272576   1.346338   0.000000
     6  C    1.351172   2.296345   2.656426   2.366552   1.344527
     7  F    2.349053   3.537708   3.978727   3.534575   2.270646
     8  O    4.144642   3.593263   2.342589   1.374448   2.422324
     9  C    5.018815   4.751982   3.623211   2.395829   2.844940
    10  C    1.370270   2.350769   3.590412   4.141448   3.618559
    11  O    2.267750   3.473762   4.611083   4.922240   4.110343
    12  O    2.381694   2.747887   4.088780   4.963446   4.723946
    13  H    2.149827   1.101379   2.074331   3.316482   3.742007
    14  H    3.335609   2.109399   1.104101   2.107904   3.281366
    15  H    3.316925   3.743898   3.289733   2.125645   1.101641
    16  H    6.030275   5.620442   4.387221   3.307463   3.934501
    17  H    5.070465   4.974239   3.979321   2.721397   2.850218
    18  H    5.069244   4.972682   3.977925   2.720811   2.850067
    19  H    3.196561   3.706242   5.047436   5.873878   5.524774
                    6          7          8          9         10
     6  C    0.000000
     7  F    1.325227   0.000000
     8  O    3.653433   4.692235   0.000000
     9  C    4.189460   4.923723   1.408688   0.000000
    10  C    2.397633   2.824654   5.513309   6.370293   0.000000
    11  O    2.769001   2.589789   6.286698   6.952938   1.217299
    12  O    3.635970   4.185194   6.286114   7.316447   1.361592
    13  H    3.322921   4.483770   4.416217   5.679375   2.632816
    14  H    3.760333   5.082818   2.547166   3.951876   4.460068
    15  H    2.085599   2.438785   2.709724   2.544789   4.482052
    16  H    5.276948   6.036846   2.044640   1.113124   7.394684
    17  H    4.123900   4.696276   2.076727   1.112851   6.371416
    18  H    4.123318   4.696128   2.076698   1.112793   6.370033
    19  H    4.340830   4.663066   7.213547   8.197873   1.944880
                   11         12         13         14         15
    11  O    0.000000
    12  O    2.192465   0.000000
    13  H    3.848846   2.441998   0.000000
    14  H    5.562399   4.706054   2.356230   0.000000
    15  H    4.756042   5.684082   4.843297   4.214938   0.000000
    16  H    8.030154   8.270899   6.460569   4.476777   3.648785
    17  H    6.847739   7.393805   5.948967   4.436475   2.358573
    18  H    6.846520   7.392123   5.947120   4.434857   2.359690
    19  H    2.274799   0.967326   3.387210   5.671930   6.422873
                   16         17         18         19
    16  H    0.000000
    17  H    1.802795   0.000000
    18  H    1.802854   1.844001   0.000000
    19  H    9.177066   8.234420   8.232724   0.000000
 Stoichiometry    C8H7FO3
 Framework group  C1[X(C8H7FO3)]
 Deg. of freedom    51
 Full point group                 C1      NOp   1
 Largest Abelian subgroup         C1      NOp   1
 Largest concise Abelian subgroup C1      NOp   1
                         Standard orientation:                         
 ---------------------------------------------------------------------
 Center     Atomic      Atomic             Coordinates (Angstroms)
 Number     Number       Type             X           Y           Z
 ---------------------------------------------------------------------
      1          6           0       -1.048526   -0.188869   -0.000174
      2          6           0       -0.453081   -1.396931   -0.000097
      3          6           0        0.882368   -1.521734   -0.000299
      4          6           0        1.709814   -0.461516   -0.000651
      5          6           0        1.102652    0.740141   -0.000536
      6          6           0       -0.233620    0.888903   -0.000425
      7          9           0       -0.690776    2.132782   -0.000431
      8          8           0        3.067290   -0.676845   -0.000580
      9          6           0        3.931264    0.435786    0.001303
     10          6           0       -2.416145   -0.103682    0.000200
     11          8           0       -3.001613    0.963578    0.000572
     12          8           0       -3.195287   -1.220316    0.000350
     13          1           0       -1.024369   -2.338560    0.000206
     14          1           0        1.323761   -2.533767   -0.000109
     15          1           0        1.702553    1.664116   -0.000734
     16          1           0        4.976858    0.053975    0.001683
     17          1           0        3.783483    1.041910   -0.920223
     18          1           0        3.781947    1.039986    0.923776
     19          1           0       -4.138715   -1.006628    0.000616
 ---------------------------------------------------------------------
 Rotational constants (GHZ):           2.2531126           0.5769335           0.4607549
 Standard basis: Aug-CC-pVTZ (5D, 7F)
 There are   835 symmetry adapted cartesian basis functions of A   symmetry.
 There are   713 symmetry adapted basis functions of A   symmetry.
   713 basis functions,  1053 primitive gaussians,   835 cartesian basis functions
    44 alpha electrons       44 beta electrons
       nuclear repulsion energy       696.2343364313 Hartrees.
 NAtoms=   19 NActive=   19 NUniq=   19 SFac= 1.00D+00 NAtFMM=   60 NAOKFM=F Big=F
 Integral buffers will be    131072 words long.
 Raffenetti 2 integral format.
 Two-electron integral symmetry is turned on.
 One-electron integrals computed using PRISM.
 NBasis=   713 RedAO= T EigKep=  1.08D-06  NBF=   713
 NBsUse=   711 1.00D-06 EigRej=  5.60D-07 NBFU=   711
 ExpMin= 2.53D-02 ExpMax= 1.95D+04 ExpMxC= 6.65D+02 IAcc=3 IRadAn=         5 AccDes= 0.00D+00
 Harris functional with IExCor= 1009 and IRadAn=       5 diagonalized for initial guess.
 HarFok:  IExCor= 1009 AccDes= 0.00D+00 IRadAn=         5 IDoV= 1 UseB2=F ITyADJ=14
 ICtDFT=  3500011 ScaDFX=  1.000000  1.000000  1.000000  1.000000
 FoFCou: FMM=F IPFlag=           0 FMFlag=      100000 FMFlg1=           0
         NFxFlg=           0 DoJE=T BraDBF=F KetDBF=T FulRan=T
         wScrn=  0.000000 ICntrl=       500 IOpCl=  0 I1Cent=   200000004 NGrid=           0
         NMat0=    1 NMatS0=      1 NMatT0=    0 NMatD0=    1 NMtDS0=    0 NMtDT0=    0
 Petite list used in FoFCou.
 Requested convergence on RMS density matrix=1.00D-08 within 128 cycles.
 Requested convergence on MAX density matrix=1.00D-06.
 Requested convergence on             energy=1.00D-06.
 No special actions if energy rises.
 SCF Done:  E(RM062X) =  -634.560786131     A.U. after   14 cycles
            NFock= 14  Conv=0.31D-08     -V/T= 2.0038

 **********************************************************************

            Population analysis using the SCF Density.

 **********************************************************************

 Orbital symmetries:
       Occupied  (A) (A) (A) (A) (A) (A) (A) (A) (A) (A) (A) (A)
                 (A) (A) (A) (A) (A) (A) (A) (A) (A) (A) (A) (A)
                 (A) (A) (A) (A) (A) (A) (A) (A) (A) (A) (A) (A)
                 (A) (A) (A) (A) (A) (A) (A) (A)
       Virtual   (A) (A) (A) (A) (A) (A) (A) (A) (A) (A) (A) (A)
                 (A) (A) (A) (A) (A) (A) (A) (A) (A) (A) (A) (A)
                 (A) (A) (A) (A) (A) (A) (A) (A) (A) (A) (A) (A)
                 (A) (A) (A) (A) (A) (A) (A) (A) (A) (A) (A) (A)
                 (A) (A) (A) (A) (A) (A) (A) (A) (A) (A) (A) (A)
                 (A) (A) (A) (A) (A) (A) (A) (A) (A) (A) (A) (A)
                 (A) (A) (A) (A) (A) (A) (A) (A) (A) (A) (A) (A)
                 (A) (A) (A) (A) (A) (A) (A) (A) (A) (A) (A) (A)
                 (A) (A) (A) (A) (A) (A) (A) (A) (A) (A) (A) (A)
                 (A) (A) (A) (A) (A) (A) (A) (A) (A) (A) (A) (A)
                 (A) (A) (A) (A) (A) (A) (A) (A) (A) (A) (A) (A)
                 (A) (A) (A) (A) (A) (A) (A) (A) (A) (A) (A) (A)
                 (A) (A) (A) (A) (A) (A) (A) (A) (A) (A) (A) (A)
                 (A) (A) (A) (A) (A) (A) (A) (A) (A) (A) (A) (A)
                 (A) (A) (A) (A) (A) (A) (A) (A) (A) (A) (A) (A)
                 (A) (A) (A) (A) (A) (A) (A) (A) (A) (A) (A) (A)
                 (A) (A) (A) (A) (A) (A) (A) (A) (A) (A) (A) (A)
                 (A) (A) (A) (A) (A) (A) (A) (A) (A) (A) (A) (A)
                 (A) (A) (A) (A) (A) (A) (A) (A) (A) (A) (A) (A)
                 (A) (A) (A) (A) (A) (A) (A) (A) (A) (A) (A) (A)
                 (A) (A) (A) (A) (A) (A) (A) (A) (A) (A) (A) (A)
                 (A) (A) (A) (A) (A) (A) (A) (A) (A) (A) (A) (A)
                 (A) (A) (A) (A) (A) (A) (A) (A) (A) (A) (A) (A)
                 (A) (A) (A) (A) (A) (A) (A) (A) (A) (A) (A) (A)
                 (A) (A) (A) (A) (A) (A) (A) (A) (A) (A) (A) (A)
                 (A) (A) (A) (A) (A) (A) (A) (A) (A) (A) (A) (A)
                 (A) (A) (A) (A) (A) (A) (A) (A) (A) (A) (A) (A)
                 (A) (A) (A) (A) (A) (A) (A) (A) (A) (A) (A) (A)
                 (A) (A) (A) (A) (A) (A) (A) (A) (A) (A) (A) (A)
                 (A) (A) (A) (A) (A) (A) (A) (A) (A) (A) (A) (A)
                 (A) (A) (A) (A) (A) (A) (A) (A) (A) (A) (A) (A)
                 (A) (A) (A) (A) (A) (A) (A) (A) (A) (A) (A) (A)
                 (A) (A) (A) (A) (A) (A) (A) (A) (A) (A) (A) (A)
                 (A) (A) (A) (A) (A) (A) (A) (A) (A) (A) (A) (A)
                 (A) (A) (A) (A) (A) (A) (A) (A) (A) (A) (A) (A)
                 (A) (A) (A) (A) (A) (A) (A) (A) (A) (A) (A) (A)
                 (A) (A) (A) (A) (A) (A) (A) (A) (A) (A) (A) (A)
                 (A) (A) (A) (A) (A) (A) (A) (A) (A) (A) (A) (A)
                 (A) (A) (A) (A) (A) (A) (A) (A) (A) (A) (A) (A)
                 (A) (A) (A) (A) (A) (A) (A) (A) (A) (A) (A) (A)
                 (A) (A) (A) (A) (A) (A) (A) (A) (A) (A) (A) (A)
                 (A) (A) (A) (A) (A) (A) (A) (A) (A) (A) (A) (A)
                 (A) (A) (A) (A) (A) (A) (A) (A) (A) (A) (A) (A)
                 (A) (A) (A) (A) (A) (A) (A) (A) (A) (A) (A) (A)
                 (A) (A) (A) (A) (A) (A) (A) (A) (A) (A) (A) (A)
                 (A) (A) (A) (A) (A) (A) (A) (A) (A) (A) (A) (A)
                 (A) (A) (A) (A) (A) (A) (A) (A) (A) (A) (A) (A)
                 (A) (A) (A) (A) (A) (A) (A) (A) (A) (A) (A) (A)
                 (A) (A) (A) (A) (A) (A) (A) (A) (A) (A) (A) (A)
                 (A) (A) (A) (A) (A) (A) (A) (A) (A) (A) (A) (A)
                 (A) (A) (A) (A) (A) (A) (A) (A) (A) (A) (A) (A)
                 (A) (A) (A) (A) (A) (A) (A) (A) (A) (A) (A) (A)
                 (A) (A) (A) (A) (A) (A) (A) (A) (A) (A) (A) (A)
                 (A) (A) (A) (A) (A) (A) (A) (A) (A) (A) (A) (A)
                 (A) (A) (A) (A) (A) (A) (A) (A) (A) (A) (A) (A)
                 (A) (A) (A) (A) (A) (A) (A)
 The electronic state is 1-A.
 Alpha  occ. eigenvalues --  -25.26577 -19.68083 -19.66539 -19.60243 -10.67280
 Alpha  occ. eigenvalues --  -10.64812 -10.62681 -10.61439 -10.56362 -10.55699
 Alpha  occ. eigenvalues --  -10.55596 -10.54727  -1.39104  -1.23108  -1.21424
 Alpha  occ. eigenvalues --   -1.12656  -1.02193  -0.91648  -0.88374  -0.82543
 Alpha  occ. eigenvalues --   -0.76906  -0.73040  -0.70728  -0.65653  -0.62121
 Alpha  occ. eigenvalues --   -0.61822  -0.59228  -0.58957  -0.57049  -0.56865
 Alpha  occ. eigenvalues --   -0.53742  -0.53688  -0.52421  -0.50051  -0.48880
 Alpha  occ. eigenvalues --   -0.47785  -0.46566  -0.44234  -0.42193  -0.41824
 Alpha  occ. eigenvalues --   -0.39071  -0.34900  -0.33557  -0.31319
 Alpha virt. eigenvalues --   -0.02493  -0.01113  -0.00216   0.00644   0.00843
 Alpha virt. eigenvalues --    0.01302   0.01468   0.02249   0.03453   0.03772
 Alpha virt. eigenvalues --    0.03805   0.05174   0.05649   0.06340   0.06959
 Alpha virt. eigenvalues --    0.07234   0.07723   0.07848   0.08210   0.08258
 Alpha virt. eigenvalues --    0.08410   0.09330   0.09832   0.09845   0.10437
 Alpha virt. eigenvalues --    0.10540   0.10834   0.11269   0.11439   0.11856
 Alpha virt. eigenvalues --    0.12102   0.13095   0.13098   0.13350   0.14486
 Alpha virt. eigenvalues --    0.15177   0.15996   0.16807   0.17116   0.18023
 Alpha virt. eigenvalues --    0.18067   0.18911   0.19423   0.19462   0.19720
 Alpha virt. eigenvalues --    0.20130   0.20459   0.20873   0.21651   0.22071
 Alpha virt. eigenvalues --    0.22212   0.22827   0.22949   0.23120   0.23809
 Alpha virt. eigenvalues --    0.24136   0.24606   0.24822   0.24907   0.25392
 Alpha virt. eigenvalues --    0.26085   0.26116   0.26698   0.26963   0.26966
 Alpha virt. eigenvalues --    0.27974   0.28649   0.29214   0.29547   0.30184
 Alpha virt. eigenvalues --    0.30702   0.31371   0.31820   0.32415   0.32801
 Alpha virt. eigenvalues --    0.32850   0.33092   0.33798   0.34068   0.34495
 Alpha virt. eigenvalues --    0.35377   0.35480   0.35646   0.36711   0.36770
 Alpha virt. eigenvalues --    0.36884   0.37283   0.37875   0.37907   0.38029
 Alpha virt. eigenvalues --    0.39056   0.39658   0.39758   0.40278   0.40577
 Alpha virt. eigenvalues --    0.40712   0.41344   0.42283   0.42597   0.42764
 Alpha virt. eigenvalues --    0.43085   0.43229   0.43360   0.44719   0.44953
 Alpha virt. eigenvalues --    0.46084   0.46738   0.47991   0.48395   0.48445
 Alpha virt. eigenvalues --    0.48824   0.49533   0.50226   0.51363   0.51713
 Alpha virt. eigenvalues --    0.52191   0.53959   0.54242   0.54383   0.55002
 Alpha virt. eigenvalues --    0.55141   0.55719   0.56058   0.56438   0.56743
 Alpha virt. eigenvalues --    0.58288   0.58317   0.59575   0.60575   0.62355
 Alpha virt. eigenvalues --    0.63401   0.63414   0.63721   0.64391   0.65413
 Alpha virt. eigenvalues --    0.65842   0.66145   0.67357   0.67650   0.68625
 Alpha virt. eigenvalues --    0.68851   0.69169   0.69749   0.71246   0.72187
 Alpha virt. eigenvalues --    0.72669   0.73596   0.73919   0.74169   0.74229
 Alpha virt. eigenvalues --    0.75105   0.75275   0.75327   0.76139   0.76320
 Alpha virt. eigenvalues --    0.76969   0.77082   0.77635   0.77758   0.78448
 Alpha virt. eigenvalues --    0.79983   0.80365   0.80756   0.80935   0.81779
 Alpha virt. eigenvalues --    0.82044   0.82438   0.82801   0.83056   0.83167
 Alpha virt. eigenvalues --    0.83707   0.83962   0.85569   0.85683   0.86717
 Alpha virt. eigenvalues --    0.86835   0.87799   0.87992   0.88500   0.88827
 Alpha virt. eigenvalues --    0.89303   0.90179   0.90201   0.91043   0.91949
 Alpha virt. eigenvalues --    0.92583   0.92799   0.93628   0.93864   0.94280
 Alpha virt. eigenvalues --    0.94621   0.95101   0.95909   0.96943   0.98079
 Alpha virt. eigenvalues --    0.98862   0.98953   0.99430   1.00170   1.00950
 Alpha virt. eigenvalues --    1.01199   1.01891   1.02154   1.03360   1.03727
 Alpha virt. eigenvalues --    1.04615   1.04854   1.05649   1.05754   1.06527
 Alpha virt. eigenvalues --    1.06547   1.06993   1.08209   1.08702   1.09060
 Alpha virt. eigenvalues --    1.09354   1.10095   1.10822   1.10945   1.11430
 Alpha virt. eigenvalues --    1.12230   1.13985   1.14905   1.15053   1.16156
 Alpha virt. eigenvalues --    1.16752   1.16906   1.19192   1.19483   1.20322
 Alpha virt. eigenvalues --    1.20724   1.21353   1.22713   1.23018   1.24570
 Alpha virt. eigenvalues --    1.25095   1.25401   1.26362   1.26556   1.28308
 Alpha virt. eigenvalues --    1.29025   1.29258   1.29723   1.32278   1.33098
 Alpha virt. eigenvalues --    1.33154   1.33748   1.34808   1.36109   1.36138
 Alpha virt. eigenvalues --    1.37435   1.39025   1.39633   1.40237   1.40985
 Alpha virt. eigenvalues --    1.43263   1.43330   1.44236   1.44653   1.44943
 Alpha virt. eigenvalues --    1.45281   1.46156   1.46592   1.47190   1.48326
 Alpha virt. eigenvalues --    1.49080   1.50464   1.50947   1.51394   1.52184
 Alpha virt. eigenvalues --    1.53367   1.53464   1.53927   1.55053   1.55984
 Alpha virt. eigenvalues --    1.56918   1.58221   1.58476   1.58868   1.59829
 Alpha virt. eigenvalues --    1.60152   1.61337   1.61761   1.63268   1.63284
 Alpha virt. eigenvalues --    1.65959   1.66315   1.66671   1.67291   1.69685
 Alpha virt. eigenvalues --    1.69714   1.70413   1.70726   1.71979   1.72343
 Alpha virt. eigenvalues --    1.72809   1.74696   1.75455   1.76178   1.76262
 Alpha virt. eigenvalues --    1.77145   1.77519   1.78675   1.79371   1.80257
 Alpha virt. eigenvalues --    1.81055   1.81413   1.83197   1.83613   1.86048
 Alpha virt. eigenvalues --    1.86488   1.86586   1.87561   1.88098   1.89954
 Alpha virt. eigenvalues --    1.91574   1.91616   1.93259   1.95824   1.96285
 Alpha virt. eigenvalues --    1.96662   1.97345   1.98994   1.99081   1.99983
 Alpha virt. eigenvalues --    2.01232   2.01676   2.04271   2.04657   2.04797
 Alpha virt. eigenvalues --    2.05665   2.06167   2.07962   2.10172   2.10249
 Alpha virt. eigenvalues --    2.11309   2.11963   2.13783   2.14295   2.14511
 Alpha virt. eigenvalues --    2.17756   2.20809   2.22119   2.23428   2.23948
 Alpha virt. eigenvalues --    2.24000   2.25924   2.26356   2.28257   2.30296
 Alpha virt. eigenvalues --    2.34224   2.35394   2.36691   2.36988   2.38600
 Alpha virt. eigenvalues --    2.38794   2.39777   2.40833   2.41861   2.43011
 Alpha virt. eigenvalues --    2.44235   2.46912   2.47589   2.48911   2.50124
 Alpha virt. eigenvalues --    2.51064   2.52639   2.54430   2.55226   2.55477
 Alpha virt. eigenvalues --    2.56078   2.58570   2.59749   2.62211   2.63756
 Alpha virt. eigenvalues --    2.65795   2.66410   2.69135   2.70791   2.71686
 Alpha virt. eigenvalues --    2.72176   2.74405   2.76213   2.76348   2.78140
 Alpha virt. eigenvalues --    2.79414   2.79562   2.82035   2.82540   2.83969
 Alpha virt. eigenvalues --    2.85397   2.86214   2.86633   2.89161   2.91407
 Alpha virt. eigenvalues --    2.93737   2.94368   2.94793   2.96271   2.97305
 Alpha virt. eigenvalues --    3.00357   3.00936   3.02563   3.04027   3.04538
 Alpha virt. eigenvalues --    3.06060   3.07828   3.09471   3.09684   3.12057
 Alpha virt. eigenvalues --    3.12638   3.13165   3.13879   3.14616   3.15986
 Alpha virt. eigenvalues --    3.16321   3.17039   3.17950   3.19685   3.20993
 Alpha virt. eigenvalues --    3.22005   3.23293   3.23480   3.25646   3.26010
 Alpha virt. eigenvalues --    3.26763   3.27746   3.28097   3.30841   3.31182
 Alpha virt. eigenvalues --    3.32382   3.33291   3.33699   3.34081   3.36288
 Alpha virt. eigenvalues --    3.37674   3.38949   3.39675   3.40844   3.42458
 Alpha virt. eigenvalues --    3.42944   3.43621   3.43826   3.44848   3.47081
 Alpha virt. eigenvalues --    3.47189   3.47511   3.49211   3.50180   3.51095
 Alpha virt. eigenvalues --    3.52808   3.53464   3.53843   3.54465   3.55213
 Alpha virt. eigenvalues --    3.57093   3.57573   3.58022   3.59357   3.61241
 Alpha virt. eigenvalues --    3.61339   3.62716   3.65181   3.65209   3.68608
 Alpha virt. eigenvalues --    3.69135   3.69470   3.69879   3.72587   3.73168
 Alpha virt. eigenvalues --    3.74048   3.75030   3.76005   3.76675   3.77978
 Alpha virt. eigenvalues --    3.78478   3.80226   3.81760   3.84633   3.84654
 Alpha virt. eigenvalues --    3.85278   3.86601   3.87697   3.88745   3.92638
 Alpha virt. eigenvalues --    3.92836   3.93515   3.93642   3.96160   3.96772
 Alpha virt. eigenvalues --    3.97764   3.98280   3.98825   3.99197   4.00459
 Alpha virt. eigenvalues --    4.00531   4.02756   4.03137   4.04737   4.06188
 Alpha virt. eigenvalues --    4.07266   4.08759   4.10534   4.12099   4.12748
 Alpha virt. eigenvalues --    4.12969   4.15192   4.17254   4.18091   4.18555
 Alpha virt. eigenvalues --    4.19761   4.21479   4.22087   4.22750   4.23876
 Alpha virt. eigenvalues --    4.25443   4.27234   4.29798   4.30580   4.32646
 Alpha virt. eigenvalues --    4.33123   4.35693   4.36802   4.39352   4.41801
 Alpha virt. eigenvalues --    4.42462   4.42731   4.45047   4.45072   4.46579
 Alpha virt. eigenvalues --    4.48320   4.50138   4.50836   4.54438   4.54920
 Alpha virt. eigenvalues --    4.56749   4.60177   4.60760   4.61491   4.61750
 Alpha virt. eigenvalues --    4.62101   4.64542   4.65189   4.68057   4.69908
 Alpha virt. eigenvalues --    4.70311   4.71555   4.73055   4.74878   4.75663
 Alpha virt. eigenvalues --    4.76707   4.80708   4.81520   4.83689   4.84773
 Alpha virt. eigenvalues --    4.85962   4.89414   4.91981   4.94812   4.95702
 Alpha virt. eigenvalues --    4.98290   4.98614   4.99418   5.01845   5.05440
 Alpha virt. eigenvalues --    5.06395   5.09477   5.10178   5.13473   5.13605
 Alpha virt. eigenvalues --    5.17594   5.18229   5.21136   5.23702   5.24279
 Alpha virt. eigenvalues --    5.25011   5.28763   5.35435   5.35566   5.38675
 Alpha virt. eigenvalues --    5.39095   5.47097   5.52934   5.55035   5.57811
 Alpha virt. eigenvalues --    5.61734   5.64408   5.69310   5.73355   5.74444
 Alpha virt. eigenvalues --    5.82540   5.87806   5.92318   5.92922   6.01804
 Alpha virt. eigenvalues --    6.08744   6.13452   6.18856   6.24338   6.24596
 Alpha virt. eigenvalues --    6.26592   6.29210   6.31076   6.33870   6.37038
 Alpha virt. eigenvalues --    6.39848   6.42513   6.44378   6.48498   6.51890
 Alpha virt. eigenvalues --    6.53740   6.55593   6.58486   6.64099   6.65487
 Alpha virt. eigenvalues --    6.69924   6.72533   6.76899   6.78203   6.78917
 Alpha virt. eigenvalues --    6.83251   6.86947   6.89707   6.91115   6.95457
 Alpha virt. eigenvalues --    7.01206   7.01916   7.08646   7.08769   7.09487
 Alpha virt. eigenvalues --    7.15156   7.20906   7.31218   7.33800   7.34487
 Alpha virt. eigenvalues --    7.35835   7.43398   7.52302   7.68003   7.85075
 Alpha virt. eigenvalues --    7.88575   8.01918   8.07314   8.46667   8.56976
 Alpha virt. eigenvalues --    8.75306   8.75904   8.85772   8.88402   8.98955
 Alpha virt. eigenvalues --    9.04217   9.06025   9.09624   9.44857   9.46779
 Alpha virt. eigenvalues --   15.37509  15.72860  15.78785  15.99569  17.14803
 Alpha virt. eigenvalues --   17.31573  17.67276  18.61800  19.42621  20.24707
 Alpha virt. eigenvalues --   20.54213  20.79184
          Condensed to atoms (all electrons):
               1          2          3          4          5          6
     1  C    8.019485  -0.814256  -0.137173  -0.407643  -0.027440  -1.305882
     2  C   -0.814256   8.894779  -0.331281  -0.195425  -0.530484   0.119117
     3  C   -0.137173  -0.331281   8.452181  -0.407655  -0.147546  -0.194262
     4  C   -0.407643  -0.195425  -0.407655   7.031839  -0.325488  -0.165074
     5  C   -0.027440  -0.530484  -0.147546  -0.325488   7.329006  -0.011318
     6  C   -1.305882   0.119117  -0.194262  -0.165074  -0.011318   8.789674
     7  F   -0.007399  -0.021953   0.019114   0.035801   0.041271  -0.304387
     8  O    0.018098   0.028737  -0.103162  -0.243877  -0.152240  -0.030868
     9  C   -0.002446   0.005063  -0.029582   0.084027  -0.058735   0.017017
    10  C   -0.681689  -0.751160   0.152566   0.142500  -0.028007  -0.477348
    11  O   -0.114464   0.020664  -0.018230  -0.018257   0.022469   0.000612
    12  O   -0.096905  -0.018959  -0.027907  -0.002962  -0.005697   0.038828
    13  H   -0.141108   0.365363  -1.003840  -0.032736   0.088496   0.027910
    14  H   -0.078093  -0.725599   0.650339  -0.250424   0.022853   0.013290
    15  H   -0.036707   0.139505  -0.259131  -0.466945   0.241137  -0.632263
    16  H    0.005070  -0.000060  -0.007241  -0.009226   0.024098  -0.009016
    17  H   -0.011001   0.003735   0.007723   0.021782  -0.040422   0.021157
    18  H   -0.010969   0.003744   0.007708   0.021786  -0.040434   0.021095
    19  H    0.016451  -0.003607   0.009692   0.001117  -0.002867  -0.020995
               7          8          9         10         11         12
     1  C   -0.007399   0.018098  -0.002446  -0.681689  -0.114464  -0.096905
     2  C   -0.021953   0.028737   0.005063  -0.751160   0.020664  -0.018959
     3  C    0.019114  -0.103162  -0.029582   0.152566  -0.018230  -0.027907
     4  C    0.035801  -0.243877   0.084027   0.142500  -0.018257  -0.002962
     5  C    0.041271  -0.152240  -0.058735  -0.028007   0.022469  -0.005697
     6  C   -0.304387  -0.030868   0.017017  -0.477348   0.000612   0.038828
     7  F    9.777912  -0.000304  -0.009873   0.031727  -0.013242  -0.004371
     8  O   -0.000304   9.451504   0.093597  -0.014013   0.001016   0.000678
     9  C   -0.009873   0.093597   6.049991  -0.001870   0.000416  -0.000140
    10  C    0.031727  -0.014013  -0.001870   7.517580  -0.112008   0.073061
    11  O   -0.013242   0.001016   0.000416  -0.112008   9.326078  -0.097959
    12  O   -0.004371   0.000678  -0.000140   0.073061  -0.097959   8.619322
    13  H    0.017323   0.009466   0.006852   0.008105   0.020769  -0.039833
    14  H   -0.000510  -0.128484  -0.034637   0.006287  -0.002117  -0.003931
    15  H    0.046702  -0.088566  -0.205830   0.003220  -0.000420   0.002687
    16  H    0.000290  -0.034735   0.376094  -0.000220   0.000066  -0.000005
    17  H   -0.001994  -0.009498   0.357443   0.000470  -0.000183  -0.000065
    18  H   -0.001987  -0.009324   0.357250   0.000468  -0.000182  -0.000064
    19  H   -0.000604  -0.000193  -0.000013   0.076387  -0.107412   0.154137
              13         14         15         16         17         18
     1  C   -0.141108  -0.078093  -0.036707   0.005070  -0.011001  -0.010969
     2  C    0.365363  -0.725599   0.139505  -0.000060   0.003735   0.003744
     3  C   -1.003840   0.650339  -0.259131  -0.007241   0.007723   0.007708
     4  C   -0.032736  -0.250424  -0.466945  -0.009226   0.021782   0.021786
     5  C    0.088496   0.022853   0.241137   0.024098  -0.040422  -0.040434
     6  C    0.027910   0.013290  -0.632263  -0.009016   0.021157   0.021095
     7  F    0.017323  -0.000510   0.046702   0.000290  -0.001994  -0.001987
     8  O    0.009466  -0.128484  -0.088566  -0.034735  -0.009498  -0.009324
     9  C    0.006852  -0.034637  -0.205830   0.376094   0.357443   0.357250
    10  C    0.008105   0.006287   0.003220  -0.000220   0.000470   0.000468
    11  O    0.020769  -0.002117  -0.000420   0.000066  -0.000183  -0.000182
    12  O   -0.039833  -0.003931   0.002687  -0.000005  -0.000065  -0.000064
    13  H    2.149531  -0.420403  -0.023713   0.000318   0.000393   0.000384
    14  H   -0.420403   1.553436   0.040997  -0.001868  -0.001818  -0.001775
    15  H   -0.023713   0.040997   2.016031   0.007665  -0.047741  -0.047465
    16  H    0.000318  -0.001868   0.007665   0.394284  -0.022429  -0.022443
    17  H    0.000393  -0.001818  -0.047741  -0.022429   0.361258   0.009940
    18  H    0.000384  -0.001775  -0.047465  -0.022443   0.009940   0.361073
    19  H   -0.014791   0.000630  -0.000354  -0.000006   0.000017   0.000017
              19
     1  C    0.016451
     2  C   -0.003607
     3  C    0.009692
     4  C    0.001117
     5  C   -0.002867
     6  C   -0.020995
     7  F   -0.000604
     8  O   -0.000193
     9  C   -0.000013
    10  C    0.076387
    11  O   -0.107412
    12  O    0.154137
    13  H   -0.014791
    14  H    0.000630
    15  H   -0.000354
    16  H   -0.000006
    17  H    0.000017
    18  H    0.000017
    19  H    0.593898
 Mulliken charges:
               1
     1  C    1.814071
     2  C   -0.187922
     3  C   -0.632315
     4  C    1.186860
     5  C   -0.398652
     6  C    0.102715
     7  F   -0.603517
     8  O   -0.787832
     9  C   -1.004624
    10  C    0.053946
    11  O   -0.907617
    12  O   -0.589915
    13  H   -0.018486
    14  H    0.361826
    15  H    0.311191
    16  H    0.299363
    17  H    0.351234
    18  H    0.351178
    19  H    0.298496
 Sum of Mulliken charges =   0.00000
 Mulliken charges with hydrogens summed into heavy atoms:
               1
     1  C    1.814071
     2  C   -0.206408
     3  C   -0.270489
     4  C    1.186860
     5  C   -0.087461
     6  C    0.102715
     7  F   -0.603517
     8  O   -0.787832
     9  C   -0.002849
    10  C    0.053946
    11  O   -0.907617
    12  O   -0.291419
 Electronic spatial extent (au):  <R**2>=           2270.9329
 Charge=              0.0000 electrons
 Dipole moment (field-independent basis, Debye):
    X=              3.2663    Y=             -1.5392    Z=              0.0016  Tot=              3.6108
 Quadrupole moment (field-independent basis, Debye-Ang):
   XX=            -58.3310   YY=            -70.5747   ZZ=            -68.8002
   XY=             11.9922   XZ=              0.0082   YZ=             -0.0030
 Traceless Quadrupole moment (field-independent basis, Debye-Ang):
   XX=              7.5710   YY=             -4.6728   ZZ=             -2.8982
   XY=             11.9922   XZ=              0.0082   YZ=             -0.0030
 Octapole moment (field-independent basis, Debye-Ang**2):
  XXX=              2.1044  YYY=             -1.2396  ZZZ=              0.0045  XYY=              7.8677
  XXY=             -5.8476  XXZ=              0.0341  XZZ=             -5.2693  YZZ=              6.9986
  YYZ=             -0.0005  XYZ=              0.0023
 Hexadecapole moment (field-independent basis, Debye-Ang**3):
 XXXX=          -1751.3794 YYYY=           -550.1386 ZZZZ=            -75.3239 XXXY=            153.6153
 XXXZ=              0.0883 YYYX=             -2.4995 YYYZ=             -0.0141 ZZZX=             -0.0005
 ZZZY=             -0.0044 XXYY=           -486.4930 XXZZ=           -376.3993 YYZZ=           -110.2843
 XXYZ=             -0.0430 YYXZ=             -0.0088 ZZXY=             -1.5121
 N-N= 6.962343364313D+02 E-N=-2.880505493143D+03  KE= 6.321529497302D+02
 ******************************Gaussian NBO Version 3.1******************************
             N A T U R A L   A T O M I C   O R B I T A L   A N D
          N A T U R A L   B O N D   O R B I T A L   A N A L Y S I S
 ******************************Gaussian NBO Version 3.1******************************
       /RESON  / : Allow strongly delocalized NBO set

 Analyzing the SCF density

 Job title: 20                                                              

 Storage needed:   1528079 in NPA,   2036022 in NBO (********** available)
 GSVD:  LWork=       30135 too small for GESVD, short by      921950 words or      921950 for optimal perf.
 Remove ICRem=  238 ICRemI=  239 L=1 PNAO number  246 atom    6 type 153 NPNAO=  713
   due to symmetric orthogonalization 2, value= 0.00D+00.
 Remove ICRem=  238 ICRemI=  239 L=1 PNAO number  242 atom    6 type 152 NPNAO=  712
   due to symmetric orthogonalization 2, value= 0.00D+00.
 Remove ICRem=  238 ICRemI=  239 L=1 PNAO number  238 atom    6 type 151 NPNAO=  711
   due to symmetric orthogonalization 2, value= 0.00D+00.
 GSVD:  LWork=       35985 too small for GESVD, short by      904427 words or      904427 for optimal perf.

 Computed number of electrons   87.99994494 does not match expected value of    88.


 NATURAL POPULATIONS:  Natural atomic orbital occupancies 
                                                          
   NAO  Atom  No  lang   Type(AO)    Occupancy      Energy
 ----------------------------------------------------------
     1    C    1  S      Cor( 1S)     1.99874     -10.37846
     2    C    1  S      Val( 2S)     0.89691      -0.12450
     3    C    1  S      Ryd( 3S)     0.00126       1.90456
     4    C    1  S      Ryd( 4S)     0.00012       2.23983
     5    C    1  S      Ryd( 5S)     0.00005       4.02447
     6    C    1  px     Val( 2p)     1.12038      -0.12435
     7    C    1  px     Ryd( 4p)     0.00476       2.50669
     8    C    1  px     Ryd( 3p)     0.00018       1.05177
     9    C    1  px     Ryd( 5p)     0.00005       2.70761
    10    C    1  py     Val( 2p)     1.13904      -0.12206
    11    C    1  py     Ryd( 4p)     0.00594       2.08735
    12    C    1  py     Ryd( 3p)     0.00018       1.15107
    13    C    1  py     Ryd( 5p)     0.00009       2.55765
    14    C    1  pz     Val( 2p)     1.12892      -0.14897
    15    C    1  pz     Ryd( 4p)     0.00167       0.96625
    16    C    1  pz     Ryd( 3p)     0.00052       0.79564
    17    C    1  pz     Ryd( 5p)     0.00012       1.95925
    18    C    1  dxy    Ryd( 3d)     0.00102       2.98264
    19    C    1  dxy    Ryd( 4d)     0.00035       3.66668
    20    C    1  dxy    Ryd( 5d)     0.00007       5.84158
    21    C    1  dxz    Ryd( 3d)     0.00029       1.41514
    22    C    1  dxz    Ryd( 5d)     0.00018       3.04060
    23    C    1  dxz    Ryd( 4d)     0.00006       2.39856
    24    C    1  dyz    Ryd( 3d)     0.00027       1.38144
    25    C    1  dyz    Ryd( 5d)     0.00012       2.94878
    26    C    1  dyz    Ryd( 4d)     0.00004       2.71326
    27    C    1  dx2y2  Ryd( 3d)     0.00185       3.41884
    28    C    1  dx2y2  Ryd( 4d)     0.00031       3.97642
    29    C    1  dx2y2  Ryd( 5d)     0.00004       5.23423
    30    C    1  dz2    Ryd( 3d)     0.00109       1.62079
    31    C    1  dz2    Ryd( 5d)     0.00032       4.03331
    32    C    1  dz2    Ryd( 4d)     0.00006       3.95057
    33    C    1  f(0)   Ryd( 4f)     0.00053       1.68222
    34    C    1  f(0)   Ryd( 5f)     0.00028       3.36887
    35    C    1  f(C1)  Ryd( 4f)     0.00058       2.10887
    36    C    1  f(C1)  Ryd( 5f)     0.00049       3.55396
    37    C    1  f(S1)  Ryd( 4f)     0.00089       1.99307
    38    C    1  f(S1)  Ryd( 5f)     0.00029       3.56087
    39    C    1  f(C2)  Ryd( 4f)     0.00064       1.71204
    40    C    1  f(C2)  Ryd( 5f)     0.00004       3.24867
    41    C    1  f(S2)  Ryd( 4f)     0.00065       1.57853
    42    C    1  f(S2)  Ryd( 5f)     0.00006       3.35251
    43    C    1  f(C3)  Ryd( 4f)     0.00136       2.97629
    44    C    1  f(C3)  Ryd( 5f)     0.00015       4.81291
    45    C    1  f(S3)  Ryd( 4f)     0.00161       2.77038
    46    C    1  f(S3)  Ryd( 5f)     0.00027       4.29280
 
    47    C    2  S      Cor( 1S)     1.99912     -10.39515
    48    C    2  S      Val( 2S)     0.93863      -0.18923
    49    C    2  S      Ryd( 3S)     0.00130       1.97538
    50    C    2  S      Ryd( 5S)     0.00013       2.63801
    51    C    2  S      Ryd( 4S)     0.00004       2.31873
    52    C    2  px     Val( 2p)     1.08922      -0.07876
    53    C    2  px     Ryd( 4p)     0.00403       1.95037
    54    C    2  px     Ryd( 5p)     0.00009       2.74073
    55    C    2  px     Ryd( 3p)     0.00010       1.05936
    56    C    2  py     Val( 2p)     1.12205      -0.07296
    57    C    2  py     Ryd( 4p)     0.00399       1.87893
    58    C    2  py     Ryd( 5p)     0.00004       2.43137
    59    C    2  py     Ryd( 3p)     0.00005       1.23196
    60    C    2  pz     Val( 2p)     0.94297      -0.12974
    61    C    2  pz     Ryd( 4p)     0.00050       1.02954
    62    C    2  pz     Ryd( 5p)     0.00013       1.70308
    63    C    2  pz     Ryd( 3p)     0.00005       0.71643
    64    C    2  dxy    Ryd( 3d)     0.00166       2.72790
    65    C    2  dxy    Ryd( 5d)     0.00010       3.82761
    66    C    2  dxy    Ryd( 4d)     0.00007       3.60050
    67    C    2  dxz    Ryd( 3d)     0.00078       1.61456
    68    C    2  dxz    Ryd( 5d)     0.00006       2.95401
    69    C    2  dxz    Ryd( 4d)     0.00002       2.17719
    70    C    2  dyz    Ryd( 3d)     0.00112       1.29784
    71    C    2  dyz    Ryd( 5d)     0.00007       3.04892
    72    C    2  dyz    Ryd( 4d)     0.00003       1.91741
    73    C    2  dx2y2  Ryd( 4d)     0.00211       3.70966
    74    C    2  dx2y2  Ryd( 5d)     0.00024       4.02504
    75    C    2  dx2y2  Ryd( 3d)     0.00008       2.90142
    76    C    2  dz2    Ryd( 3d)     0.00105       1.93229
    77    C    2  dz2    Ryd( 5d)     0.00016       4.07673
    78    C    2  dz2    Ryd( 4d)     0.00010       3.81133
    79    C    2  f(0)   Ryd( 4f)     0.00012       1.54000
    80    C    2  f(0)   Ryd( 5f)     0.00012       3.42705
    81    C    2  f(C1)  Ryd( 4f)     0.00055       2.04255
    82    C    2  f(C1)  Ryd( 5f)     0.00024       3.62379
    83    C    2  f(S1)  Ryd( 4f)     0.00065       1.97979
    84    C    2  f(S1)  Ryd( 5f)     0.00015       3.50725
    85    C    2  f(C2)  Ryd( 4f)     0.00021       1.57272
    86    C    2  f(C2)  Ryd( 5f)     0.00003       3.46592
    87    C    2  f(S2)  Ryd( 4f)     0.00020       1.61995
    88    C    2  f(S2)  Ryd( 5f)     0.00004       3.42818
    89    C    2  f(C3)  Ryd( 4f)     0.00038       3.51383
    90    C    2  f(C3)  Ryd( 5f)     0.00011       4.09459
    91    C    2  f(S3)  Ryd( 4f)     0.00116       2.04587
    92    C    2  f(S3)  Ryd( 5f)     0.00027       4.41207
 
    93    C    3  S      Cor( 1S)     1.99904     -10.38017
    94    C    3  S      Val( 2S)     0.94290      -0.18655
    95    C    3  S      Ryd( 3S)     0.00139       1.87817
    96    C    3  S      Ryd( 5S)     0.00013       2.92234
    97    C    3  S      Ryd( 4S)     0.00002       2.09747
    98    C    3  px     Val( 2p)     1.09309      -0.08371
    99    C    3  px     Ryd( 5p)     0.00429       1.93803
   100    C    3  px     Ryd( 4p)     0.00019       1.89679
   101    C    3  px     Ryd( 3p)     0.00003       1.66169
   102    C    3  py     Val( 2p)     1.15552      -0.09723
   103    C    3  py     Ryd( 4p)     0.00426       1.82099
   104    C    3  py     Ryd( 5p)     0.00007       1.97078
   105    C    3  py     Ryd( 3p)     0.00004       1.47437
   106    C    3  pz     Val( 2p)     1.04941      -0.13345
   107    C    3  pz     Ryd( 3p)     0.00080       1.01422
   108    C    3  pz     Ryd( 5p)     0.00007       1.21819
   109    C    3  pz     Ryd( 4p)     0.00013       1.05745
   110    C    3  dxy    Ryd( 4d)     0.00272       2.93836
   111    C    3  dxy    Ryd( 5d)     0.00022       4.01089
   112    C    3  dxy    Ryd( 3d)     0.00006       2.82023
   113    C    3  dxz    Ryd( 3d)     0.00030       1.50153
   114    C    3  dxz    Ryd( 5d)     0.00005       3.17422
   115    C    3  dxz    Ryd( 4d)     0.00003       1.78967
   116    C    3  dyz    Ryd( 3d)     0.00061       1.34459
   117    C    3  dyz    Ryd( 5d)     0.00004       3.25740
   118    C    3  dyz    Ryd( 4d)     0.00010       1.54854
   119    C    3  dx2y2  Ryd( 4d)     0.00190       2.87408
   120    C    3  dx2y2  Ryd( 5d)     0.00022       4.09417
   121    C    3  dx2y2  Ryd( 3d)     0.00010       2.35684
   122    C    3  dz2    Ryd( 3d)     0.00167       1.79682
   123    C    3  dz2    Ryd( 5d)     0.00017       4.12677
   124    C    3  dz2    Ryd( 4d)     0.00007       3.60465
   125    C    3  f(0)   Ryd( 4f)     0.00037       1.82545
   126    C    3  f(0)   Ryd( 5f)     0.00011       3.12355
   127    C    3  f(C1)  Ryd( 4f)     0.00068       2.40810
   128    C    3  f(C1)  Ryd( 5f)     0.00015       3.30134
   129    C    3  f(S1)  Ryd( 4f)     0.00059       2.17385
   130    C    3  f(S1)  Ryd( 5f)     0.00008       3.18150
   131    C    3  f(C2)  Ryd( 4f)     0.00011       1.95939
   132    C    3  f(C2)  Ryd( 5f)     0.00006       3.01883
   133    C    3  f(S2)  Ryd( 4f)     0.00009       1.91743
   134    C    3  f(S2)  Ryd( 5f)     0.00007       3.04933
   135    C    3  f(C3)  Ryd( 4f)     0.00065       3.38393
   136    C    3  f(C3)  Ryd( 5f)     0.00017       4.07170
   137    C    3  f(S3)  Ryd( 4f)     0.00065       2.44323
   138    C    3  f(S3)  Ryd( 5f)     0.00040       3.77375
 
   139    C    4  S      Cor( 1S)     1.99852     -10.47169
   140    C    4  S      Val( 2S)     0.82834      -0.13457
   141    C    4  S      Ryd( 3S)     0.00120       2.14358
   142    C    4  S      Ryd( 4S)     0.00010       2.32628
   143    C    4  S      Ryd( 5S)     0.00001       2.53323
   144    C    4  px     Val( 2p)     0.79202      -0.05050
   145    C    4  px     Ryd( 4p)     0.00496       1.76600
   146    C    4  px     Ryd( 5p)     0.00006       1.77454
   147    C    4  px     Ryd( 3p)     0.00005       1.72963
   148    C    4  py     Val( 2p)     1.07505      -0.08909
   149    C    4  py     Ryd( 5p)     0.00484       1.86114
   150    C    4  py     Ryd( 3p)     0.00012       1.20006
   151    C    4  py     Ryd( 4p)     0.00004       1.60533
   152    C    4  pz     Val( 2p)     0.93000      -0.13898
   153    C    4  pz     Ryd( 3p)     0.00053       0.97217
   154    C    4  pz     Ryd( 4p)     0.00017       1.03448
   155    C    4  pz     Ryd( 5p)     0.00013       1.17454
   156    C    4  dxy    Ryd( 3d)     0.00204       3.22664
   157    C    4  dxy    Ryd( 4d)     0.00021       3.54669
   158    C    4  dxy    Ryd( 5d)     0.00008       4.75135
   159    C    4  dxz    Ryd( 3d)     0.00254       1.38567
   160    C    4  dxz    Ryd( 4d)     0.00004       2.61193
   161    C    4  dxz    Ryd( 5d)     0.00005       2.61220
   162    C    4  dyz    Ryd( 3d)     0.00175       1.59007
   163    C    4  dyz    Ryd( 4d)     0.00010       2.58202
   164    C    4  dyz    Ryd( 5d)     0.00002       2.64124
   165    C    4  dx2y2  Ryd( 3d)     0.00059       3.04810
   166    C    4  dx2y2  Ryd( 4d)     0.00032       3.68738
   167    C    4  dx2y2  Ryd( 5d)     0.00005       3.78575
   168    C    4  dz2    Ryd( 3d)     0.00077       1.95866
   169    C    4  dz2    Ryd( 5d)     0.00043       3.99196
   170    C    4  dz2    Ryd( 4d)     0.00008       3.48674
   171    C    4  f(0)   Ryd( 4f)     0.00001       1.50391
   172    C    4  f(0)   Ryd( 5f)     0.00019       3.68911
   173    C    4  f(C1)  Ryd( 4f)     0.00076       1.74959
   174    C    4  f(C1)  Ryd( 5f)     0.00020       3.78894
   175    C    4  f(S1)  Ryd( 4f)     0.00042       1.76133
   176    C    4  f(S1)  Ryd( 5f)     0.00027       3.81949
   177    C    4  f(C2)  Ryd( 4f)     0.00054       1.40580
   178    C    4  f(C2)  Ryd( 5f)     0.00005       3.77151
   179    C    4  f(S2)  Ryd( 4f)     0.00038       1.39139
   180    C    4  f(S2)  Ryd( 5f)     0.00001       3.75911
   181    C    4  f(C3)  Ryd( 4f)     0.00067       2.86087
   182    C    4  f(C3)  Ryd( 5f)     0.00007       4.51469
   183    C    4  f(S3)  Ryd( 4f)     0.00198       2.35098
   184    C    4  f(S3)  Ryd( 5f)     0.00010       4.89004
 
   185    C    5  S      Cor( 1S)     1.99893     -10.39093
   186    C    5  S      Val( 2S)     0.96003      -0.19636
   187    C    5  S      Ryd( 3S)     0.00175       1.57572
   188    C    5  S      Ryd( 5S)     0.00015       2.55489
   189    C    5  S      Ryd( 4S)     0.00002       2.34216
   190    C    5  px     Val( 2p)     1.11149      -0.10987
   191    C    5  px     Ryd( 4p)     0.00279       1.88007
   192    C    5  px     Ryd( 3p)     0.00016       1.08542
   193    C    5  px     Ryd( 5p)     0.00010       3.15172
   194    C    5  py     Val( 2p)     1.16498      -0.11103
   195    C    5  py     Ryd( 4p)     0.00485       1.59270
   196    C    5  py     Ryd( 3p)     0.00020       1.42939
   197    C    5  py     Ryd( 5p)     0.00010       2.63554
   198    C    5  pz     Val( 2p)     1.10430      -0.15309
   199    C    5  pz     Ryd( 3p)     0.00113       0.85447
   200    C    5  pz     Ryd( 4p)     0.00066       1.09457
   201    C    5  pz     Ryd( 5p)     0.00011       1.76341
   202    C    5  dxy    Ryd( 3d)     0.00139       2.35722
   203    C    5  dxy    Ryd( 4d)     0.00017       3.69361
   204    C    5  dxy    Ryd( 5d)     0.00011       3.97112
   205    C    5  dxz    Ryd( 3d)     0.00039       1.44994
   206    C    5  dxz    Ryd( 5d)     0.00005       2.96403
   207    C    5  dxz    Ryd( 4d)     0.00009       2.18578
   208    C    5  dyz    Ryd( 3d)     0.00060       1.36504
   209    C    5  dyz    Ryd( 5d)     0.00006       3.07145
   210    C    5  dyz    Ryd( 4d)     0.00004       2.00462
   211    C    5  dx2y2  Ryd( 4d)     0.00244       3.37489
   212    C    5  dx2y2  Ryd( 5d)     0.00027       3.72146
   213    C    5  dx2y2  Ryd( 3d)     0.00005       3.32224
   214    C    5  dz2    Ryd( 3d)     0.00124       1.63264
   215    C    5  dz2    Ryd( 5d)     0.00026       4.15283
   216    C    5  dz2    Ryd( 4d)     0.00004       3.78407
   217    C    5  f(0)   Ryd( 4f)     0.00054       1.85039
   218    C    5  f(0)   Ryd( 5f)     0.00019       3.06767
   219    C    5  f(C1)  Ryd( 4f)     0.00087       2.35166
   220    C    5  f(C1)  Ryd( 5f)     0.00012       3.23846
   221    C    5  f(S1)  Ryd( 4f)     0.00079       2.29346
   222    C    5  f(S1)  Ryd( 5f)     0.00013       3.16827
   223    C    5  f(C2)  Ryd( 4f)     0.00009       1.95194
   224    C    5  f(C2)  Ryd( 5f)     0.00002       2.96922
   225    C    5  f(S2)  Ryd( 4f)     0.00015       1.97304
   226    C    5  f(S2)  Ryd( 5f)     0.00013       2.97019
   227    C    5  f(C3)  Ryd( 4f)     0.00059       3.38088
   228    C    5  f(C3)  Ryd( 5f)     0.00023       4.48250
   229    C    5  f(S3)  Ryd( 4f)     0.00059       2.49758
   230    C    5  f(S3)  Ryd( 5f)     0.00030       3.61214
 
   231    C    6  S      Cor( 1S)     1.99832     -10.50083
   232    C    6  S      Val( 2S)     0.82014      -0.13632
   233    C    6  S      Ryd( 4S)     0.00254       2.28494
   234    C    6  S      Ryd( 3S)     0.00011       2.11689
   235    C    6  S      Ryd( 5S)     0.00002       2.62341
   236    C    6  px     Val( 2p)     0.99660      -0.07751
   237    C    6  px     Ryd( 3p)     0.00361       1.89384
   238    C    6  px     Ryd( 4p)     0.00008       2.58486
   239    C    6  py     Val( 2p)     0.71200      -0.04028
   240    C    6  py     Ryd( 3p)     0.00733       1.64496
   241    C    6  py     Ryd( 4p)     0.00009       2.71368
   242    C    6  pz     Val( 2p)     0.92050      -0.14466
   243    C    6  pz     Ryd( 3p)     0.00069       1.09498
   244    C    6  pz     Ryd( 4p)     0.00015       1.61820
   245    C    6  dxy    Ryd( 4d)     0.00102       3.54785
   246    C    6  dxy    Ryd( 3d)     0.00049       3.29243
   247    C    6  dxy    Ryd( 5d)     0.00010       4.09843
   248    C    6  dxz    Ryd( 3d)     0.00107       1.93751
   249    C    6  dxz    Ryd( 4d)     0.00009       2.46257
   250    C    6  dxz    Ryd( 5d)     0.00007       2.47109
   251    C    6  dyz    Ryd( 3d)     0.00255       1.73475
   252    C    6  dyz    Ryd( 5d)     0.00026       2.47097
   253    C    6  dyz    Ryd( 4d)     0.00005       2.46706
   254    C    6  dx2y2  Ryd( 3d)     0.00103       3.38808
   255    C    6  dx2y2  Ryd( 4d)     0.00045       3.44807
   256    C    6  dx2y2  Ryd( 5d)     0.00015       3.93483
   257    C    6  dz2    Ryd( 3d)     0.00055       2.35313
   258    C    6  dz2    Ryd( 4d)     0.00053       3.19914
   259    C    6  dz2    Ryd( 5d)     0.00007       3.43152
   260    C    6  f(0)   Ryd( 4f)     0.00008       1.41049
   261    C    6  f(0)   Ryd( 5f)     0.00027       3.70194
   262    C    6  f(C1)  Ryd( 4f)     0.00040       1.79403
   263    C    6  f(C1)  Ryd( 5f)     0.00024       3.92486
   264    C    6  f(S1)  Ryd( 4f)     0.00059       1.62538
   265    C    6  f(S1)  Ryd( 5f)     0.00017       3.80007
   266    C    6  f(C2)  Ryd( 4f)     0.00033       1.32039
   267    C    6  f(C2)  Ryd( 5f)     0.00007       3.78210
   268    C    6  f(S2)  Ryd( 4f)     0.00038       1.29621
   269    C    6  f(S2)  Ryd( 5f)     0.00004       3.70876
   270    C    6  f(C3)  Ryd( 4f)     0.00064       2.81630
   271    C    6  f(C3)  Ryd( 5f)     0.00013       4.48185
   272    C    6  f(S3)  Ryd( 4f)     0.00191       1.92167
   273    C    6  f(S3)  Ryd( 5f)     0.00019       4.84402
 
   274    F    7  S      Cor( 1S)     1.99993     -24.99731
   275    F    7  S      Val( 2S)     1.81977      -1.40013
   276    F    7  S      Ryd( 4S)     0.00068       2.64951
   277    F    7  S      Ryd( 3S)     0.00009       2.25909
   278    F    7  S      Ryd( 5S)     0.00001      11.05769
   279    F    7  px     Val( 2p)     1.92706      -0.51885
   280    F    7  px     Ryd( 3p)     0.00103       0.97343
   281    F    7  px     Ryd( 4p)     0.00020       1.49511
   282    F    7  px     Ryd( 5p)     0.00005       5.38157
   283    F    7  py     Val( 2p)     1.63327      -0.48557
   284    F    7  py     Ryd( 3p)     0.00061       1.03069
   285    F    7  py     Ryd( 4p)     0.00022       1.14371
   286    F    7  py     Ryd( 5p)     0.00002       6.22997
   287    F    7  pz     Val( 2p)     1.91820      -0.51895
   288    F    7  pz     Ryd( 4p)     0.00111       0.89569
   289    F    7  pz     Ryd( 3p)     0.00022       0.76254
   290    F    7  pz     Ryd( 5p)     0.00000       4.87953
   291    F    7  dxy    Ryd( 4d)     0.00094       3.70696
   292    F    7  dxy    Ryd( 3d)     0.00004       3.53506
   293    F    7  dxy    Ryd( 5d)     0.00001       9.03201
   294    F    7  dxz    Ryd( 4d)     0.00016       2.77446
   295    F    7  dxz    Ryd( 3d)     0.00005       1.90111
   296    F    7  dxz    Ryd( 5d)     0.00000       8.68816
   297    F    7  dyz    Ryd( 4d)     0.00096       2.99743
   298    F    7  dyz    Ryd( 3d)     0.00006       2.30440
   299    F    7  dyz    Ryd( 5d)     0.00001       8.77778
   300    F    7  dx2y2  Ryd( 4d)     0.00104       3.88525
   301    F    7  dx2y2  Ryd( 3d)     0.00006       3.59136
   302    F    7  dx2y2  Ryd( 5d)     0.00001       9.05561
   303    F    7  dz2    Ryd( 4d)     0.00044       3.63367
   304    F    7  dz2    Ryd( 3d)     0.00004       3.35654
   305    F    7  dz2    Ryd( 5d)     0.00000       8.84883
   306    F    7  f(0)   Ryd( 4f)     0.00004       3.93368
   307    F    7  f(0)   Ryd( 5f)     0.00001       7.60870
   308    F    7  f(C1)  Ryd( 4f)     0.00001       3.96604
   309    F    7  f(C1)  Ryd( 5f)     0.00001       7.65806
   310    F    7  f(S1)  Ryd( 4f)     0.00003       4.05546
   311    F    7  f(S1)  Ryd( 5f)     0.00001       7.88937
   312    F    7  f(C2)  Ryd( 4f)     0.00007       3.93196
   313    F    7  f(C2)  Ryd( 5f)     0.00001       7.77073
   314    F    7  f(S2)  Ryd( 4f)     0.00004       3.92604
   315    F    7  f(S2)  Ryd( 5f)     0.00001       7.80896
   316    F    7  f(C3)  Ryd( 4f)     0.00007       4.25160
   317    F    7  f(C3)  Ryd( 5f)     0.00002       8.11976
   318    F    7  f(S3)  Ryd( 4f)     0.00006       4.15521
   319    F    7  f(S3)  Ryd( 5f)     0.00003       8.10640
 
   320    O    8  S      Cor( 1S)     1.99975     -19.47888
   321    O    8  S      Val( 2S)     1.58930      -0.97177
   322    O    8  S      Ryd( 4S)     0.00203       2.49595
   323    O    8  S      Ryd( 3S)     0.00020       1.72150
   324    O    8  S      Ryd( 5S)     0.00001      10.91133
   325    O    8  px     Val( 2p)     1.37565      -0.34879
   326    O    8  px     Ryd( 4p)     0.00178       1.74365
   327    O    8  px     Ryd( 3p)     0.00016       1.35027
   328    O    8  px     Ryd( 5p)     0.00003       5.04512
   329    O    8  py     Val( 2p)     1.67418      -0.39957
   330    O    8  py     Ryd( 3p)     0.00241       1.26774
   331    O    8  py     Ryd( 4p)     0.00015       1.42262
   332    O    8  py     Ryd( 5p)     0.00008       4.43853
   333    O    8  pz     Val( 2p)     1.84907      -0.40786
   334    O    8  pz     Ryd( 3p)     0.00352       0.95690
   335    O    8  pz     Ryd( 4p)     0.00006       1.22960
   336    O    8  pz     Ryd( 5p)     0.00001       3.70034
   337    O    8  dxy    Ryd( 3d)     0.00330       2.24432
   338    O    8  dxy    Ryd( 4d)     0.00015       2.98506
   339    O    8  dxy    Ryd( 5d)     0.00006       6.61746
   340    O    8  dxz    Ryd( 3d)     0.00041       1.51367
   341    O    8  dxz    Ryd( 4d)     0.00025       2.41979
   342    O    8  dxz    Ryd( 5d)     0.00005       6.25072
   343    O    8  dyz    Ryd( 3d)     0.00294       1.33628
   344    O    8  dyz    Ryd( 4d)     0.00008       2.35648
   345    O    8  dyz    Ryd( 5d)     0.00002       6.06571
   346    O    8  dx2y2  Ryd( 3d)     0.00365       2.15785
   347    O    8  dx2y2  Ryd( 4d)     0.00021       3.23327
   348    O    8  dx2y2  Ryd( 5d)     0.00005       6.48551
   349    O    8  dz2    Ryd( 3d)     0.00275       1.68416
   350    O    8  dz2    Ryd( 4d)     0.00011       2.66821
   351    O    8  dz2    Ryd( 5d)     0.00002       6.46183
   352    O    8  f(0)   Ryd( 4f)     0.00046       2.81495
   353    O    8  f(0)   Ryd( 5f)     0.00002       6.13824
   354    O    8  f(C1)  Ryd( 4f)     0.00014       4.27692
   355    O    8  f(C1)  Ryd( 5f)     0.00004       6.51504
   356    O    8  f(S1)  Ryd( 4f)     0.00013       3.39959
   357    O    8  f(S1)  Ryd( 5f)     0.00002       6.28710
   358    O    8  f(C2)  Ryd( 4f)     0.00004       2.90567
   359    O    8  f(C2)  Ryd( 5f)     0.00002       6.30489
   360    O    8  f(S2)  Ryd( 4f)     0.00009       2.93016
   361    O    8  f(S2)  Ryd( 5f)     0.00002       6.40197
   362    O    8  f(C3)  Ryd( 4f)     0.00010       4.90881
   363    O    8  f(C3)  Ryd( 5f)     0.00006       6.74661
   364    O    8  f(S3)  Ryd( 4f)     0.00006       3.86439
   365    O    8  f(S3)  Ryd( 5f)     0.00008       6.64776
 
   366    C    9  S      Cor( 1S)     1.99943     -10.49205
   367    C    9  S      Val( 2S)     1.09460      -0.33904
   368    C    9  S      Ryd( 3S)     0.00180       1.03300
   369    C    9  S      Ryd( 5S)     0.00018       3.87471
   370    C    9  S      Ryd( 4S)     0.00006       3.43831
   371    C    9  px     Val( 2p)     1.02561      -0.12926
   372    C    9  px     Ryd( 4p)     0.00193       1.18624
   373    C    9  px     Ryd( 5p)     0.00021       2.20851
   374    C    9  px     Ryd( 3p)     0.00004       0.95358
   375    C    9  py     Val( 2p)     0.91005      -0.10693
   376    C    9  py     Ryd( 4p)     0.00360       0.94406
   377    C    9  py     Ryd( 5p)     0.00013       2.19954
   378    C    9  py     Ryd( 3p)     0.00008       0.63846
   379    C    9  pz     Val( 2p)     1.18211      -0.14676
   380    C    9  pz     Ryd( 4p)     0.00029       1.04478
   381    C    9  pz     Ryd( 5p)     0.00020       1.93901
   382    C    9  pz     Ryd( 3p)     0.00001       0.59640
   383    C    9  dxy    Ryd( 5d)     0.00056       3.89448
   384    C    9  dxy    Ryd( 3d)     0.00014       1.20343
   385    C    9  dxy    Ryd( 4d)     0.00001       3.33856
   386    C    9  dxz    Ryd( 4d)     0.00026       3.12402
   387    C    9  dxz    Ryd( 3d)     0.00010       1.21996
   388    C    9  dxz    Ryd( 5d)     0.00005       3.14000
   389    C    9  dyz    Ryd( 5d)     0.00156       3.40585
   390    C    9  dyz    Ryd( 3d)     0.00024       1.20769
   391    C    9  dyz    Ryd( 4d)     0.00000       3.14399
   392    C    9  dx2y2  Ryd( 4d)     0.00074       3.27484
   393    C    9  dx2y2  Ryd( 3d)     0.00002       1.25048
   394    C    9  dx2y2  Ryd( 5d)     0.00003       3.58829
   395    C    9  dz2    Ryd( 5d)     0.00062       3.59396
   396    C    9  dz2    Ryd( 3d)     0.00014       1.25962
   397    C    9  dz2    Ryd( 4d)     0.00002       3.34841
   398    C    9  f(0)   Ryd( 4f)     0.00003       2.19891
   399    C    9  f(0)   Ryd( 5f)     0.00001       3.52737
   400    C    9  f(C1)  Ryd( 4f)     0.00010       2.86734
   401    C    9  f(C1)  Ryd( 5f)     0.00001       3.67767
   402    C    9  f(S1)  Ryd( 4f)     0.00016       2.83811
   403    C    9  f(S1)  Ryd( 5f)     0.00013       3.78784
   404    C    9  f(C2)  Ryd( 4f)     0.00007       2.58804
   405    C    9  f(C2)  Ryd( 5f)     0.00001       3.54715
   406    C    9  f(S2)  Ryd( 4f)     0.00011       2.27146
   407    C    9  f(S2)  Ryd( 5f)     0.00002       3.47164
   408    C    9  f(C3)  Ryd( 4f)     0.00004       2.70580
   409    C    9  f(C3)  Ryd( 5f)     0.00006       3.68147
   410    C    9  f(S3)  Ryd( 4f)     0.00014       2.62802
   411    C    9  f(S3)  Ryd( 5f)     0.00006       3.58368
 
   412    C   10  S      Cor( 1S)     1.99912     -10.53799
   413    C   10  S      Val( 2S)     0.77746      -0.10488
   414    C   10  S      Ryd( 3S)     0.00402       1.99401
   415    C   10  S      Ryd( 4S)     0.00017       2.11372
   416    C   10  S      Ryd( 5S)     0.00007       2.55201
   417    C   10  px     Val( 2p)     0.90261      -0.04298
   418    C   10  px     Ryd( 5p)     0.00558       1.62853
   419    C   10  px     Ryd( 3p)     0.00026       1.14574
   420    C   10  px     Ryd( 4p)     0.00002       1.39262
   421    C   10  py     Val( 2p)     0.73036      -0.02004
   422    C   10  py     Ryd( 4p)     0.01311       1.62547
   423    C   10  py     Ryd( 3p)     0.00019       1.16116
   424    C   10  py     Ryd( 5p)     0.00005       2.04126
   425    C   10  pz     Val( 2p)     0.76643      -0.12288
   426    C   10  pz     Ryd( 5p)     0.00057       1.15138
   427    C   10  pz     Ryd( 3p)     0.00015       0.69385
   428    C   10  pz     Ryd( 4p)     0.00016       1.07932
   429    C   10  dxy    Ryd( 3d)     0.00070       2.97938
   430    C   10  dxy    Ryd( 4d)     0.00052       3.30210
   431    C   10  dxy    Ryd( 5d)     0.00004       3.36256
   432    C   10  dxz    Ryd( 3d)     0.00164       2.11262
   433    C   10  dxz    Ryd( 5d)     0.00012       2.33806
   434    C   10  dxz    Ryd( 4d)     0.00006       2.31941
   435    C   10  dyz    Ryd( 3d)     0.00198       2.13319
   436    C   10  dyz    Ryd( 4d)     0.00006       2.42552
   437    C   10  dyz    Ryd( 5d)     0.00004       2.47580
   438    C   10  dx2y2  Ryd( 4d)     0.00215       2.92915
   439    C   10  dx2y2  Ryd( 3d)     0.00017       2.83071
   440    C   10  dx2y2  Ryd( 5d)     0.00007       3.74338
   441    C   10  dz2    Ryd( 3d)     0.00051       2.90752
   442    C   10  dz2    Ryd( 4d)     0.00057       3.24957
   443    C   10  dz2    Ryd( 5d)     0.00012       3.45495
   444    C   10  f(0)   Ryd( 5f)     0.00012       3.54388
   445    C   10  f(0)   Ryd( 4f)     0.00002       2.42198
   446    C   10  f(C1)  Ryd( 5f)     0.00016       3.75738
   447    C   10  f(C1)  Ryd( 4f)     0.00002       3.22817
   448    C   10  f(S1)  Ryd( 5f)     0.00007       3.67028
   449    C   10  f(S1)  Ryd( 4f)     0.00005       3.36347
   450    C   10  f(C2)  Ryd( 5f)     0.00000       3.45445
   451    C   10  f(C2)  Ryd( 4f)     0.00005       2.57312
   452    C   10  f(S2)  Ryd( 5f)     0.00003       3.65395
   453    C   10  f(S2)  Ryd( 4f)     0.00001       2.87830
   454    C   10  f(C3)  Ryd( 4f)     0.00007       4.70649
   455    C   10  f(C3)  Ryd( 5f)     0.00003       8.28671
   456    C   10  f(S3)  Ryd( 5f)     0.00008       4.63093
   457    C   10  f(S3)  Ryd( 4f)     0.00004       4.11954
 
   458    O   11  S      Cor( 1S)     1.99979     -19.32067
   459    O   11  S      Val( 2S)     1.70881      -0.99224
   460    O   11  S      Ryd( 4S)     0.00092       2.68437
   461    O   11  S      Ryd( 3S)     0.00015       2.29118
   462    O   11  S      Ryd( 5S)     0.00001       8.36574
   463    O   11  px     Val( 2p)     1.78770      -0.33024
   464    O   11  px     Ryd( 4p)     0.00131       1.38808
   465    O   11  px     Ryd( 3p)     0.00011       0.79976
   466    O   11  px     Ryd( 5p)     0.00004       4.76127
   467    O   11  py     Val( 2p)     1.62061      -0.32520
   468    O   11  py     Ryd( 4p)     0.00105       1.51157
   469    O   11  py     Ryd( 3p)     0.00011       0.69340
   470    O   11  py     Ryd( 5p)     0.00005       5.33889
   471    O   11  pz     Val( 2p)     1.44925      -0.27929
   472    O   11  pz     Ryd( 4p)     0.00061       1.05698
   473    O   11  pz     Ryd( 3p)     0.00013       0.52280
   474    O   11  pz     Ryd( 5p)     0.00001       4.19402
   475    O   11  dxy    Ryd( 3d)     0.00750       2.04585
   476    O   11  dxy    Ryd( 4d)     0.00009       3.04746
   477    O   11  dxy    Ryd( 5d)     0.00003       6.72616
   478    O   11  dxz    Ryd( 3d)     0.00166       1.45922
   479    O   11  dxz    Ryd( 4d)     0.00002       1.58664
   480    O   11  dxz    Ryd( 5d)     0.00001       6.54936
   481    O   11  dyz    Ryd( 3d)     0.00502       1.55505
   482    O   11  dyz    Ryd( 4d)     0.00004       1.61093
   483    O   11  dyz    Ryd( 5d)     0.00003       6.51974
   484    O   11  dx2y2  Ryd( 3d)     0.00618       1.86186
   485    O   11  dx2y2  Ryd( 4d)     0.00010       2.21517
   486    O   11  dx2y2  Ryd( 5d)     0.00004       6.66035
   487    O   11  dz2    Ryd( 3d)     0.00283       1.65113
   488    O   11  dz2    Ryd( 4d)     0.00009       2.33716
   489    O   11  dz2    Ryd( 5d)     0.00001       6.62788
   490    O   11  f(0)   Ryd( 4f)     0.00012       3.16441
   491    O   11  f(0)   Ryd( 5f)     0.00001       5.48723
   492    O   11  f(C1)  Ryd( 4f)     0.00006       3.32473
   493    O   11  f(C1)  Ryd( 5f)     0.00001       5.60942
   494    O   11  f(S1)  Ryd( 4f)     0.00010       3.68998
   495    O   11  f(S1)  Ryd( 5f)     0.00001       5.79051
   496    O   11  f(C2)  Ryd( 4f)     0.00010       3.13843
   497    O   11  f(C2)  Ryd( 5f)     0.00002       5.68826
   498    O   11  f(S2)  Ryd( 4f)     0.00022       3.20088
   499    O   11  f(S2)  Ryd( 5f)     0.00000       5.61730
   500    O   11  f(C3)  Ryd( 4f)     0.00037       4.18696
   501    O   11  f(C3)  Ryd( 5f)     0.00001       6.08594
   502    O   11  f(S3)  Ryd( 4f)     0.00041       3.63778
   503    O   11  f(S3)  Ryd( 5f)     0.00003       5.95644
 
   504    O   12  S      Cor( 1S)     1.99977     -19.45718
   505    O   12  S      Val( 2S)     1.67074      -1.02494
   506    O   12  S      Ryd( 3S)     0.00039       1.82447
   507    O   12  S      Ryd( 4S)     0.00020       1.92774
   508    O   12  S      Ryd( 5S)     0.00001       9.63829
   509    O   12  px     Val( 2p)     1.47232      -0.35560
   510    O   12  px     Ryd( 3p)     0.00065       1.25038
   511    O   12  px     Ryd( 4p)     0.00010       1.44184
   512    O   12  px     Ryd( 5p)     0.00003       4.69759
   513    O   12  py     Val( 2p)     1.69963      -0.39814
   514    O   12  py     Ryd( 3p)     0.00090       1.08998
   515    O   12  py     Ryd( 4p)     0.00008       1.12234
   516    O   12  py     Ryd( 5p)     0.00006       4.44644
   517    O   12  pz     Val( 2p)     1.85349      -0.40914
   518    O   12  pz     Ryd( 4p)     0.00106       0.88531
   519    O   12  pz     Ryd( 3p)     0.00001       0.86614
   520    O   12  pz     Ryd( 5p)     0.00001       3.82216
   521    O   12  dxy    Ryd( 3d)     0.00531       1.98596
   522    O   12  dxy    Ryd( 4d)     0.00014       2.46042
   523    O   12  dxy    Ryd( 5d)     0.00004       6.75459
   524    O   12  dxz    Ryd( 3d)     0.00035       1.21901
   525    O   12  dxz    Ryd( 4d)     0.00008       1.96349
   526    O   12  dxz    Ryd( 5d)     0.00001       6.41612
   527    O   12  dyz    Ryd( 3d)     0.00398       1.34288
   528    O   12  dyz    Ryd( 4d)     0.00004       1.72997
   529    O   12  dyz    Ryd( 5d)     0.00003       6.42904
   530    O   12  dx2y2  Ryd( 3d)     0.00387       1.80762
   531    O   12  dx2y2  Ryd( 4d)     0.00007       2.19628
   532    O   12  dx2y2  Ryd( 5d)     0.00006       6.82599
   533    O   12  dz2    Ryd( 3d)     0.00281       1.53831
   534    O   12  dz2    Ryd( 4d)     0.00013       2.37055
   535    O   12  dz2    Ryd( 5d)     0.00001       6.65676
   536    O   12  f(0)   Ryd( 4f)     0.00050       2.81586
   537    O   12  f(0)   Ryd( 5f)     0.00001       5.89553
   538    O   12  f(C1)  Ryd( 4f)     0.00021       3.46636
   539    O   12  f(C1)  Ryd( 5f)     0.00001       6.21424
   540    O   12  f(S1)  Ryd( 4f)     0.00014       3.31411
   541    O   12  f(S1)  Ryd( 5f)     0.00001       6.08681
   542    O   12  f(C2)  Ryd( 4f)     0.00007       2.87765
   543    O   12  f(C2)  Ryd( 5f)     0.00001       6.07309
   544    O   12  f(S2)  Ryd( 4f)     0.00006       2.90479
   545    O   12  f(S2)  Ryd( 5f)     0.00001       5.93948
   546    O   12  f(C3)  Ryd( 4f)     0.00009       4.49386
   547    O   12  f(C3)  Ryd( 5f)     0.00005       6.54950
   548    O   12  f(S3)  Ryd( 4f)     0.00011       3.84254
   549    O   12  f(S3)  Ryd( 5f)     0.00002       6.43854
 
   550    H   13  S      Val( 1S)     0.75984       0.04352
   551    H   13  S      Ryd( 4S)     0.00049       1.94183
   552    H   13  S      Ryd( 2S)     0.00017       0.73092
   553    H   13  S      Ryd( 3S)     0.00005       1.82678
   554    H   13  px     Ryd( 2p)     0.00088       0.98898
   555    H   13  px     Ryd( 4p)     0.00012       4.24708
   556    H   13  px     Ryd( 3p)     0.00006       3.58548
   557    H   13  py     Ryd( 2p)     0.00080       0.92581
   558    H   13  py     Ryd( 3p)     0.00017       4.24578
   559    H   13  py     Ryd( 4p)     0.00004       4.29473
   560    H   13  pz     Ryd( 2p)     0.00041       0.61702
   561    H   13  pz     Ryd( 4p)     0.00003       3.94234
   562    H   13  pz     Ryd( 3p)     0.00005       2.13634
   563    H   13  dxy    Ryd( 3d)     0.00010       2.23431
   564    H   13  dxy    Ryd( 4d)     0.00004       4.62097
   565    H   13  dxz    Ryd( 3d)     0.00004       1.46627
   566    H   13  dxz    Ryd( 4d)     0.00001       3.94585
   567    H   13  dyz    Ryd( 3d)     0.00003       1.54737
[...]
 154,0.32083832,-0.03005223,0.01846945,-0.00587382,0.02987853,-0.018326
 52,0.03221688,0.01127095,-0.00699612,-0.12143212,0.00688425,-0.0035181
 6,0.70675561,-0.01156199,0.01390184,0.01883761,-0.00202166,0.00106726,
 0.00499739,-0.01028827,0.01138496,-0.02460969,-0.16869775,0.06305612,-
 0.10799516,0.58931397,0.01396215,0.00241421,-0.01156125,0.00105692,-0.
 00095075,-0.00316394,0.01133909,0.00133352,0.01516483,0.06313652,-0.10
 461422,0.06613457,-0.29051663,0.29531842,0.06490604,-0.03988053,0.0256
 0515,-0.00253722,0.00146702,-0.07015493,-0.05918398,0.03641865,0.03592
 822,-0.04684715,0.02854303,-0.25711394,0.00512787,-0.00236618,0.705875
 98,-0.24860072,0.10979845,0.04762501,-0.02026898,0.01369391,-0.0773136
 2,-0.04214607,0.02514478,0.03195942,0.06237832,-0.04177768,0.02523877,
 -0.16038936,0.05713660,0.05338908,0.56566633,0.10972754,-0.13757912,-0
 .02935740,0.01376208,-0.00622377,0.04758286,0.02514466,-0.01679220,-0.
 01967353,-0.04185809,0.02007437,-0.01559794,0.05722820,-0.10278898,-0.
 03308050,-0.24365331,0.31909940,-0.00655301,0.00394872,-0.13078158,-0.
 02492123,0.01537697,0.04482143,0.03112623,-0.01916100,-0.02180881,-0.0
 3594312,0.02201193,-0.06819584,0.12340550,-0.07612274,-0.26246531,-0.0
 0269473,0.00236459,0.70171713,-0.01912590,0.01664585,-0.03923915,-0.00
 304598,0.00581226,0.00570200,0.00012348,-0.00082666,-0.00230537,-0.000
 78954,0.00545864,0.00198953,0.01411645,-0.00218081,0.00405430,-0.12985
 915,0.05049131,-0.10766354,0.13922329,0.01667760,-0.00218283,0.0241119
 6,0.00580529,0.00282359,-0.00352018,-0.00083221,-0.00070298,0.00141913
 ,0.00547051,0.00472142,-0.00122988,-0.00222186,0.01192201,-0.00259069,
 0.05048982,-0.07844144,0.06588202,-0.07043256,0.06752794,-0.01585230,0
 .00973526,0.00110703,0.00038240,-0.00025114,-0.00515554,-0.00655405,0.
 00403080,0.00029303,0.01108138,-0.00681887,0.00320154,-0.02671391,0.01
 632389,-0.06395852,-0.10868633,0.06651176,-0.27495275,0.14145457,-0.08
 652562,0.34872354,0.00040192,-0.00092402,0.00827933,-0.00255303,0.0040
 0388,-0.01092620,-0.02467564,0.02005000,0.05218263,-0.11830401,0.04246
 650,0.07866424,0.01517536,-0.00213183,-0.00510411,-0.00357020,0.006855
 94,-0.00160946,0.00110885,-0.00116462,-0.00047248,0.38859183,-0.000928
 20,-0.00055573,-0.00510584,0.00401295,0.00152738,0.00672428,0.02001570
 ,-0.00452128,-0.03210452,0.04241634,-0.07552744,-0.04867673,-0.0021060
 5,0.01301926,0.00304693,0.00684921,0.00337818,0.00098695,-0.00116388,-
 0.00006916,0.00028742,-0.19382322,0.19263214,0.00617601,-0.00381148,-0
 .01214409,-0.00379648,0.00234005,0.00753288,0.02534997,-0.01561003,-0.
 01260593,0.04642224,-0.02886513,-0.28645486,0.01501914,-0.00932862,-0.
 05816310,-0.00824865,0.00506928,0.00673958,0.00013643,-0.00008721,-0.0
 0342838,-0.10408072,0.06446857,0.43220266,0.00221103,-0.00129015,-0.00
 332243,-0.00034014,0.00123723,0.00109646,0.00514363,-0.00110160,-0.001
 60016,-0.02463620,0.01231073,0.02206770,0.00342959,-0.00319948,-0.0071
 7106,-0.00204499,0.00165780,0.00228524,-0.00061821,0.00032548,-0.00178
 024,-0.19378120,0.08143095,0.00765672,0.50688846,-0.00128468,0.0009121
 6,0.00204292,0.00123764,0.00090779,-0.00067736,-0.00109941,0.00403467,
 0.00097201,0.01233679,-0.01225159,-0.01356840,-0.00318568,0.00020381,0
 .00440439,0.00165467,-0.00037197,-0.00140435,0.00032771,-0.00028487,0.
 00109442,0.08138751,-0.11130768,-0.00474045,0.04551722,0.55300937,0.00
 009069,-0.00005516,0.00059186,0.00138560,-0.00085485,-0.00036162,-0.00
 110284,0.00066754,-0.00430098,0.03895540,-0.02394616,-0.01059465,0.002
 78056,-0.00171014,-0.00324520,0.00075063,-0.00046151,0.00034739,-0.000
 04745,0.00002968,0.00031136,-0.01997941,0.01223991,-0.08740438,-0.0031
 6846,0.00202205,0.63607973,-0.11978324,0.02503863,0.04924750,0.0155390
 7,-0.01060298,0.00010563,0.00397174,0.00188291,-0.00856994,-0.00517166
 ,0.00264226,0.00337028,-0.00310934,0.00565400,-0.00255415,-0.01323334,
 0.00869916,0.02913489,0.00184532,-0.00380166,-0.00080451,0.00326902,-0
 .00220322,-0.00603566,-0.00209413,0.00102434,0.00033984,0.52713733,0.0
 2502724,-0.09458082,-0.03040397,-0.01059830,0.00480189,-0.00011314,0.0
 0188077,0.00590278,0.00526431,0.00264344,-0.00250931,-0.00208447,0.005
 65334,0.00262086,0.00157177,0.00870296,-0.00451904,-0.01787866,-0.0038
 1205,-0.00199229,0.00047120,-0.00220386,0.00105851,0.00372600,0.001029
 76,-0.00106139,-0.00020898,-0.19007350,0.33430054,0.03526969,-0.021798
 19,-0.17190519,0.00628228,-0.00391072,-0.03700313,-0.00971430,0.005965
 42,0.00323510,0.00401679,-0.00248176,-0.00989708,-0.00241818,0.0014873
 4,0.00750528,0.02908566,-0.01785123,0.02176452,-0.00818166,0.00500952,
 -0.01968349,-0.00653280,0.00403148,0.01116459,0.00401920,-0.00247001,-
 0.00037256,0.11594520,-0.07003765,0.97215204,0.02250257,-0.00077682,0.
 00277985,-0.00150936,0.00291710,0.00177687,0.00079708,-0.00146105,0.00
 097098,0.00002353,0.00013912,-0.00035688,0.00051044,-0.00080939,0.0003
 6083,-0.00442913,0.00192747,-0.00755005,-0.00184227,0.00225810,0.00836
 221,-0.00003604,0.00007054,0.00041678,0.00009145,-0.00003046,-0.000045
 26,-0.17847627,0.05970226,-0.19837169,0.19739535,-0.00079732,0.0217193
 6,-0.00183292,0.00292724,0.00143092,-0.00109427,-0.00145836,-0.0006860
 8,-0.00060171,0.00013372,0.00016868,0.00022569,-0.00080901,-0.00031045
 ,-0.00022393,0.00191588,-0.00244897,0.00463043,0.00225658,0.00041705,-
 0.00513012,0.00007564,0.00003098,-0.00026458,-0.00003367,0.00006276,0.
 00002807,0.05970759,-0.11729604,0.12095189,-0.10040963,0.09478058,-0.0
 0812086,0.00485797,-0.06195762,0.00742598,-0.00456662,0.00248390,0.003
 12859,-0.00192552,-0.00439837,-0.00394136,0.00242838,0.00423733,0.0003
 4777,-0.00021481,-0.00191058,-0.01344838,0.00825875,-0.00810843,0.0064
 3452,-0.00394805,0.00818208,0.00374909,-0.00231235,-0.00557684,-0.0021
 6613,0.00133143,0.00019692,-0.19572220,0.11933148,-0.65916045,0.261356
 39,-0.15946907,0.74104484,-0.02561438,0.02332838,0.01191273,-0.0032980
 0,0.00237428,-0.00306338,-0.00157031,0.00059075,0.00189351,0.00084807,
 -0.00057618,-0.00351476,-0.00081641,0.00003958,0.00230071,0.00479826,-
 0.00173578,0.00181072,-0.00092907,0.00053557,0.00063930,-0.00177440,0.
 00116663,0.00368246,0.00115762,-0.00069240,-0.00016719,-0.20704631,0.0
 8672508,-0.01533802,-0.04009024,0.04296873,-0.05666822,0.35750095,0.02
 335781,-0.00206644,-0.00733656,0.00238192,-0.00088831,0.00187539,0.000
 58961,-0.00097743,-0.00116226,-0.00057132,0.00027279,0.00216298,0.0000
 3959,-0.00078320,-0.00141391,-0.00174251,0.00304012,-0.00112964,0.0005
 3566,-0.00038965,-0.00038800,0.00116313,-0.00060282,-0.00226599,-0.000
 69318,0.00045762,0.00010275,0.08677158,-0.11926032,0.00933648,0.042952
 49,0.00361390,0.03476879,-0.19742538,0.15806334,0.03476346,-0.02138633
 ,0.00107335,0.00134247,-0.00083289,-0.00494248,0.00092874,-0.00056897,
 0.00101833,0.00025570,-0.00015500,0.00154996,0.00203089,-0.00124817,-0
 .00066882,-0.00301250,0.00183662,-0.00930424,0.00078452,-0.00047748,0.
 00338878,0.00101059,-0.00062320,-0.00140919,-0.00059086,0.00036308,-0.
 00000043,0.01101225,-0.00686501,-0.12687257,-0.06605553,0.04054191,-0.
 00908968,-0.10005484,0.06238621,0.59286842,-0.00721277,0.00716315,0.00
 089593,-0.26548014,0.13739697,0.00200462,-0.00464083,0.00643562,-0.001
 14002,0.00282257,0.00336279,0.00155036,0.00009217,-0.00072376,0.000275
 92,0.00223097,0.00191652,-0.00219415,-0.00049348,0.00042819,-0.0000026
 7,-0.00057129,0.00023385,0.00003462,0.00001716,-0.00021092,0.00011104,
 -0.00220445,-0.00101220,0.00006971,0.00043561,0.00011040,-0.00000191,-
 0.00031409,0.00032624,0.00306402,0.27593590,0.00713117,0.00005335,-0.0
 0055227,0.13740062,-0.12643735,-0.00125222,0.00646863,0.00185529,0.000
 69824,0.00336304,0.00622111,-0.00096969,-0.00072418,-0.00064091,-0.000
 16946,0.00191826,0.00417581,0.00133608,0.00042550,-0.00005840,0.000000
 54,0.00023562,-0.00033567,-0.00002088,-0.00021108,-0.00019670,-0.00006
 822,-0.00101682,-0.00322630,-0.00003513,0.00011156,0.00054664,0.000000
 42,0.00032487,0.00000728,-0.00188793,-0.15256550,0.12154924,-0.0229321
 4,0.01409668,0.00448891,0.00428560,-0.00265570,-0.05782339,0.02359963,
 -0.01450949,0.00405293,0.00184177,-0.00114880,-0.00417544,0.00001751,-
 0.00001080,-0.00115026,-0.00102677,0.00061850,-0.00411143,-0.00200968,
 0.00123431,-0.00065327,0.00136441,-0.00083811,0.00013349,-0.00005246,0
 .00003206,-0.00034530,-0.00303265,0.00187098,0.00117255,0.00092446,-0.
 00056794,0.00062245,0.00208575,-0.00128693,-0.00311095,-0.00497370,0.0
 0310030,0.05973338,0.00156285,0.00360213,0.00270163,0.00971326,-0.0044
 6672,0.01275126,-0.10541212,0.04350481,-0.10744030,-0.00669870,0.00685
 121,-0.02492228,-0.00285470,0.00442766,0.00090410,-0.00125517,0.000624
 44,0.00122926,0.00005725,-0.00046053,-0.00009238,0.00118715,-0.0026401
 0,-0.00019026,-0.00029769,-0.00018590,0.00023686,0.00093254,-0.0000070
 5,0.00028748,-0.00025268,-0.00010374,0.00039305,-0.00009387,0.00004087
 ,-0.00005762,-0.00079542,-0.00252060,-0.00050726,0.10423945,0.00360323
 ,0.00519997,-0.00167351,-0.00450005,0.00517519,-0.00786542,0.04350259,
 -0.06106303,0.06572665,0.00688695,0.00028722,0.01531788,0.00442658,0.0
 0162405,-0.00056045,0.00062345,-0.00062629,-0.00075531,-0.00046043,-0.
 00040861,0.00005810,-0.00263963,-0.00148460,0.00012151,-0.00018625,-0.
 00048598,-0.00014444,-0.00000899,0.00092609,-0.00017786,-0.00010416,-0
 .00035900,-0.00024193,0.00004131,-0.00005270,0.00003544,-0.00251986,-0
 .00334536,0.00031956,-0.04880925,0.05449845,0.00316044,-0.00195530,-0.
 00212077,-0.01238735,0.00758792,-0.01777445,-0.10899057,0.06667945,-0.
 27425737,0.00185139,-0.00114022,0.00284971,0.00029093,-0.00018367,0.00
 080946,0.00065587,-0.00040271,0.00007873,-0.00005097,0.00003248,0.0001
 5425,0.00007389,-0.00004071,0.00039709,-0.00006523,0.00004114,0.000204
 82,-0.00121556,0.00074626,0.00003739,0.00024980,-0.00015426,-0.0007393
 2,0.00028668,-0.00017634,-0.00004371,0.00007294,-0.00003708,0.00093793
 ,0.11585446,-0.07086580,0.28931618,0.00161146,0.00183879,0.00248797,0.
 00031945,-0.00089838,-0.00015463,0.00169241,0.00220639,-0.00219625,-0.
 00603060,0.00561677,0.00067528,-0.26345183,0.14321437,-0.00828543,-0.0
 0870359,0.00833624,-0.00240735,-0.00014689,-0.00295601,-0.00087251,-0.
 00157559,-0.00095801,0.00088393,-0.00044555,0.00013013,0.00205085,0.00
 010130,0.00054250,-0.00078131,0.00005752,-0.00010988,0.00026065,-0.000
 20024,0.00001319,0.00023540,-0.00009833,-0.00005364,0.00002029,-0.0002
 7825,0.00026686,0.00022801,0.27709462,0.00183761,0.00346548,-0.0015414
 6,-0.00089827,-0.00058920,0.00009429,0.00220672,0.00393134,0.00133662,
 0.00558551,-0.00032945,-0.00040816,0.14321304,-0.11851056,0.00505673,0
 .00837124,-0.00028237,0.00148057,-0.00295605,-0.00313547,0.00054598,-0
 .00095606,-0.00254851,-0.00053710,0.00012771,-0.00031675,-0.00126374,0
 .00054479,0.00065141,0.00048043,-0.00011049,-0.00005425,-0.00016045,0.
 00001326,-0.00018775,-0.00014518,-0.00005364,-0.00015269,-0.00001214,0
 .00026498,-0.00000772,-0.00014016,-0.15664483,0.11856904,0.00180009,-0
 .00111844,-0.00445894,-0.00010623,0.00006446,-0.00178409,-0.00188735,0
 .00114681,-0.00471542,-0.02225138,0.01368608,0.00836155,-0.00934192,0.
 00570654,-0.05760794,0.02385914,-0.01466700,0.00532323,-0.00091837,0.0
 0057418,0.00230056,0.00227579,-0.00139295,0.00117978,-0.00063687,0.000
 38863,-0.00264278,0.00085397,-0.00052454,0.00107722,-0.00015124,0.0000
 9265,-0.00027260,0.00034928,-0.00021528,-0.00051379,0.00002062,-0.0000
 1232,0.00006550,-0.00116555,0.00071642,0.00016764,0.00596683,-0.003623
 85,0.05596422,0.00004360,-0.00005934,0.00017050,-0.00035576,0.00023303
 ,-0.00048017,-0.00033005,0.00035604,0.00160583,-0.00364934,0.00247961,
 -0.00228523,-0.00033724,0.00047219,-0.00074041,0.00020207,-0.00001393,
 0.00019331,0.00006686,-0.00001232,0.00014394,-0.01687556,0.01065402,0.
 03657575,-0.05455269,0.00158376,0.03806930,0.00012493,-0.00009809,-0.0
 0023094,0.00000213,0.00000179,0.00014578,-0.00005585,0.00003548,0.0000
 3486,-0.00005143,-0.00000272,0.00011177,-0.00001058,0.00001730,-0.0000
 2953,0.00039777,-0.00053240,-0.00003544,0.06853366,-0.00005914,-0.0000
 1708,-0.00010484,0.00023354,-0.00011911,0.00029472,0.00035349,0.000026
 85,-0.00098708,0.00248408,-0.00113001,0.00140555,0.00047287,0.00014199
 ,0.00045364,-0.00001433,0.00018755,-0.00011823,-0.00001256,0.00005412,
 -0.00008872,0.01061070,-0.00616133,-0.02247513,0.00159904,-0.05305849,
 -0.02370974,-0.00009791,0.00002628,0.00014238,0.00000160,0.00000356,-0
 .00008981,0.00003557,-0.00002013,-0.00002153,-0.00000287,-0.00005440,-
 0.00006862,0.00001743,0.00000708,0.00001812,-0.00053165,-0.00014141,0.
 00002235,-0.01303310,0.05548357,0.00015890,-0.00009783,-0.00016390,0.0
 0005378,-0.00003312,-0.00002849,-0.00001392,0.00000830,-0.00003460,-0.
 00085784,0.00053001,0.00202950,-0.00024673,0.00015087,-0.00030396,0.00
 004128,-0.00002491,0.00042557,-0.00004271,0.00002603,-0.00012813,0.002
 25781,-0.00138752,0.00141050,0.05082486,-0.03154856,-0.32099009,-0.000
 12737,0.00007871,0.00028231,0.00002420,-0.00001511,-0.00014911,0.00011
 360,-0.00006994,-0.00007159,-0.00000579,0.00000361,-0.00000358,0.00002
 034,-0.00001253,-0.00000769,0.00036297,-0.00022256,0.00011146,-0.05531
 182,0.03433336,0.33968389,0.00030934,-0.00014817,0.00064990,-0.0001048
 2,-0.00028103,-0.00082729,-0.00146040,0.00005209,0.00072996,0.00317746
 ,-0.00008715,-0.00552690,0.00093873,-0.00088146,0.00095754,-0.00071051
 ,0.00004191,0.00015769,0.00004502,0.00001064,0.00004648,-0.00810717,0.
 03893263,-0.01155428,-0.05627419,-0.04000736,0.01952983,0.00024160,-0.
 00002916,-0.00031322,-0.00002652,-0.00000201,0.00018847,-0.00012417,0.
 00006042,0.00005161,0.00002585,0.00006134,0.00000317,0.00018258,0.0001
 0138,0.00002239,-0.00001592,0.00058760,0.00037877,0.00002151,-0.004902
 68,0.00089529,0.06278033,-0.00004631,-0.00001979,-0.00053977,-0.000093
 29,0.00022185,0.00065167,0.00098106,-0.00037826,-0.00087185,-0.0021110
 3,0.00098876,0.00532886,0.00022174,-0.00008469,-0.00018167,-0.00009838
 ,0.00015519,-0.00023754,-0.00005680,0.00005997,-0.00007386,0.01353775,
 -0.01938341,0.00311173,-0.03399518,-0.25360334,0.09963871,-0.00024144,
 0.00010856,0.00039250,-0.00000775,0.00001934,-0.00022946,0.00007741,-0
 .00003648,-0.00002387,-0.00000474,-0.00004080,-0.00002172,-0.00018662,
 -0.00000598,-0.00000661,-0.00045124,-0.00026505,-0.00080483,-0.0005799
 5,0.00579989,-0.00166895,0.02673731,0.27948634,-0.00068858,0.00043406,
 0.00002851,0.00010622,0.00002812,0.00063209,0.00053074,-0.00001733,-0.
 00029646,-0.00062984,-0.00125671,0.00147120,-0.00086607,0.00025944,0.0
 0033448,0.00098468,-0.00005359,-0.00074980,-0.00003447,-0.00004603,0.0
 0016151,-0.00242225,-0.00286602,0.00304958,0.01684729,0.10340388,-0.10
 392029,0.00011822,-0.00018595,-0.00037723,-0.00001349,0.00002232,0.000
 17695,-0.00012411,0.00008720,0.00006714,-0.00002192,-0.00001188,0.0000
 1807,-0.00001634,-0.00001286,-0.00000852,0.00003906,-0.00166666,-0.001
 28576,0.00488268,0.02802904,-0.01106349,-0.01675378,-0.11244582,0.1052
 7371,0.00012607,-0.00013749,0.00077545,0.00030504,0.00011248,-0.000955
 31,-0.00101383,0.00120835,0.00110587,0.00231465,-0.00255841,-0.0072477
 6,0.00039042,-0.00005422,0.00059431,0.00000210,0.00026190,0.00028214,0
 .00007557,-0.00004113,0.00008690,-0.03823745,-0.00172672,-0.00794998,-
 0.18367260,-0.09862647,-0.07981466,0.00024430,-0.00024092,-0.00049181,
 0.00001428,0.00001335,0.00028994,-0.00010995,0.00008482,0.00004461,-0.
 00004998,-0.00004306,0.00002093,0.00006678,-0.00024516,0.00001640,-0.0
 0026658,-0.00057718,0.00088892,0.00680879,0.00285411,0.00186992,-0.000
 91340,-0.00366320,-0.00196014,0.21389543,-0.00024298,0.00016414,-0.000
 33581,-0.00007243,-0.00018829,0.00044535,0.00027728,-0.00082449,-0.000
 25628,-0.00051615,0.00185287,0.00252314,-0.00116116,0.00046401,-0.0007
 7069,0.00040332,-0.00055843,-0.00003443,0.00002613,0.00002958,-0.00000
 790,0.02368961,0.01075867,0.00886278,-0.10464904,-0.12659294,-0.062290
 57,-0.00002696,0.00010551,0.00010111,0.00001833,-0.00002124,-0.0000640
 7,0.00006729,-0.00005068,-0.00003511,0.00002291,0.00003510,0.00000696,
 0.00004283,0.00010973,-0.00001726,0.00046210,-0.00001091,0.00002299,-0
 .00149319,-0.00103789,-0.00006019,-0.02023453,-0.01302814,-0.01369465,
 0.10339547,0.12879303,-0.00069808,0.00041851,0.00002820,0.00002333,-0.
 00010610,0.00063280,0.00025570,-0.00046610,-0.00029662,0.00083737,0.00
 113288,0.00147247,-0.00062076,0.00065554,0.00033484,0.00049111,-0.0008
 5533,-0.00074932,0.00002556,0.00005184,0.00016135,0.00146481,0.0034418
 8,0.00303276,-0.08437771,-0.06160438,-0.10353284,0.00021861,-0.0000222
 1,-0.00037717,-0.00002581,0.00000236,0.00017680,-0.00013378,0.00007152
 ,0.00006719,0.00000070,0.00002491,0.00001801,0.00000395,0.00002046,-0.
 00000857,0.00150332,0.00071615,-0.00128991,-0.02281516,-0.01703857,-0.
 01101145,0.01137397,0.00797301,0.00650250,0.09245703,0.06560038,0.1048
 5313,-0.00342401,0.00450344,-0.00279623,0.00003474,-0.00017846,-0.0009
 8731,0.00052863,-0.00023714,-0.00005315,-0.00018387,0.00017837,0.00031
 133,-0.00043861,0.00005848,-0.00044716,-0.00006684,0.00058595,0.001911
 65,0.00018839,-0.00007828,-0.00036580,0.00032746,-0.00023341,-0.000498
 02,-0.00018135,0.00012351,0.00002466,-0.02228841,0.01616778,0.04739793
 ,0.00483254,-0.00638730,-0.00365118,-0.08226758,0.04207961,0.11421224,
 0.00035199,-0.00030301,0.00025937,0.00000730,0.00000410,-0.00002398,-0
 .00006117,-0.00002354,0.00010094,0.00001718,-0.00000818,-0.00001678,0.
 00001468,-0.00001934,0.00002210,0.00002035,-0.00000884,0.00001582,0.10
 258856,0.00450386,0.00114118,0.00171622,-0.00017763,-0.00014370,0.0006
 0766,-0.00023729,0.00028882,0.00003258,0.00017802,-0.00000412,-0.00019
 202,0.00005903,-0.00037839,0.00027584,0.00058367,0.00052195,-0.0011763
 8,-0.00007784,0.00011003,0.00022485,-0.00023303,0.00009252,0.00030667,
 0.00012368,-0.00005648,-0.00001519,0.01610820,-0.00605692,-0.02913601,
 -0.00638883,-0.00161773,0.00224491,0.04214102,-0.04013912,-0.07089260,
 -0.00030315,0.00004474,-0.00015911,0.00000415,0.00001150,0.00001474,-0
 .00002371,-0.00008519,-0.00006190,-0.00000817,0.00000895,0.00001033,-0
 .00001176,0.00000607,-0.00000658,-0.00001651,0.00000037,-0.00001676,-0
 .05622373,0.04625552,-0.00174553,0.00106831,0.00143086,-0.00025713,0.0
 0015841,-0.00001588,-0.00004168,0.00002556,0.00009764,0.00004466,-0.00
 002818,-0.00040801,-0.00004275,0.00002730,0.00034915,0.00035032,-0.000
 21672,0.00000991,-0.00008806,0.00005399,-0.00002495,-0.00019518,0.0001
 2052,0.00034385,0.00013416,-0.00008251,-0.00002097,0.00771564,-0.00473
 614,0.00725787,-0.00465241,0.00285858,-0.00575828,0.15398956,-0.095346
 48,-0.44400573,0.00023969,-0.00014700,0.00013042,0.00000961,-0.0000059
 2,0.00000721,-0.00001709,0.00001069,0.00002007,-0.00000503,0.00000310,
 0.00001284,-0.00000961,0.00000947,-0.00001419,-0.00001279,0.00000428,-
 0.00001418,-0.15541640,0.09622275,0.44060234\\0.00004826,-0.00004691,0
 .00015532,-0.00007124,0.00004127,0.00000923,-0.00005230,0.00003300,-0.
 00009393,0.00010745,-0.00006925,0.00019935,0.00004433,-0.00002588,-0.0
 0018881,-0.00012314,0.00007413,0.00009927,0.00004312,-0.00002738,-0.00
 006413,0.00001590,-0.00000574,-0.00003582,-0.00000117,-0.00000084,0.00
 000780,0.00001471,0.00005435,-0.00027814,-0.00006544,0.00001564,0.0000
 8465,0.00011427,-0.00008886,0.00001150,0.00001588,-0.00000992,-0.00001
 187,0.00000057,-0.00000008,0.00004703,-0.00003247,0.00002072,0.0000279
 0,0.00001188,-0.00000796,0.00001483,0.00000335,0.00003734,-0.00003877,
 -0.00003119,-0.00001971,-0.00003960,-0.00004277,0.00002609,0.00009419\
 \\@
 The archive entry for this job was punched.


 WHAT THE SLIME CONTAINS, THE GLOWING REVEALS
 BY THE FLAME'S BRIGHT HUE WHEN YOU IGNITE IT.
   --  LEONARD THURNEYSSER, 1531-1596
 DESCRIBING HIS FLAME PHOTOLYSIS ANALYTIC METHOD
 Job cpu time:       0 days 17 hours 32 minutes 45.9 seconds.
 Elapsed time:       0 days  0 hours 52 minutes 38.9 seconds.
 File lengths (MBytes):  RWF=    643 Int=      0 D2E=      0 Chk=     40 Scr=      1
 Normal termination of Gaussian 16 at Tue Mar  4 19:50:49 2025.
