 Entering Gaussian System, Link 0=g16
 Initial command:
 /usr/local/gaussian16c01/g16/l1.exe "/scr/dhuang/Gau-75306.inp" -scrdir="/scr/dhuang/"
 Entering Link 1 = /usr/local/gaussian16c01/g16/l1.exe PID=     75307.
  
 Copyright (c) 1988-2019, Gaussian, Inc.  All Rights Reserved.
  
 This is part of the Gaussian(R) 16 program.  It is based on
 the Gaussian(R) 09 system (copyright 2009, Gaussian, Inc.),
 the Gaussian(R) 03 system (copyright 2003, Gaussian, Inc.),
 the Gaussian(R) 98 system (copyright 1998, Gaussian, Inc.),
 the Gaussian(R) 94 system (copyright 1995, Gaussian, Inc.),
 the Gaussian 92(TM) system (copyright 1992, Gaussian, Inc.),
 the Gaussian 90(TM) system (copyright 1990, Gaussian, Inc.),
 the Gaussian 88(TM) system (copyright 1988, Gaussian, Inc.),
 the Gaussian 86(TM) system (copyright 1986, Carnegie Mellon
 University), and the Gaussian 82(TM) system (copyright 1983,
 Carnegie Mellon University). Gaussian is a federally registered
 trademark of Gaussian, Inc.
  
 This software contains proprietary and confidential information,
 including trade secrets, belonging to Gaussian, Inc.
  
 This software is provided under written license and may be
 used, copied, transmitted, or stored only in accord with that
 written license.
  
 The following legend is applicable only to US Government
 contracts under FAR:
  
                    RESTRICTED RIGHTS LEGEND
  
 Use, reproduction and disclosure by the US Government is
 subject to restrictions as set forth in subparagraphs (a)
 and (c) of the Commercial Computer Software - Restricted
 Rights clause in FAR 52.227-19.
  
 Gaussian, Inc.
 340 Quinnipiac St., Bldg. 40, Wallingford CT 06492
  
  
 ---------------------------------------------------------------
 Warning -- This program may not be used in any manner that
 competes with the business of Gaussian, Inc. or will provide
 assistance to any competitor of Gaussian, Inc.  The licensee
 of this program is prohibited from giving any competitor of
 Gaussian, Inc. access to this program.  By using this program,
 the user acknowledges that Gaussian, Inc. is engaged in the
 business of creating and licensing software in the field of
 computational chemistry and represents and warrants to the
 licensee that it is not a competitor of Gaussian, Inc. and that
 it will not use this program in any manner prohibited above.
 ---------------------------------------------------------------
  

 Cite this work as:
 Gaussian 16, Revision C.01,
 M. J. Frisch, G. W. Trucks, H. B. Schlegel, G. E. Scuseria, 
 M. A. Robb, J. R. Cheeseman, G. Scalmani, V. Barone, 
 G. A. Petersson, H. Nakatsuji, X. Li, M. Caricato, A. V. Marenich, 
 J. Bloino, B. G. Janesko, R. Gomperts, B. Mennucci, H. P. Hratchian, 
 J. V. Ortiz, A. F. Izmaylov, J. L. Sonnenberg, D. Williams-Young, 
 F. Ding, F. Lipparini, F. Egidi, J. Goings, B. Peng, A. Petrone, 
 T. Henderson, D. Ranasinghe, V. G. Zakrzewski, J. Gao, N. Rega, 
 G. Zheng, W. Liang, M. Hada, M. Ehara, K. Toyota, R. Fukuda, 
 J. Hasegawa, M. Ishida, T. Nakajima, Y. Honda, O. Kitao, H. Nakai, 
 T. Vreven, K. Throssell, J. A. Montgomery, Jr., J. E. Peralta, 
 F. Ogliaro, M. J. Bearpark, J. J. Heyd, E. N. Brothers, K. N. Kudin, 
 V. N. Staroverov, T. A. Keith, R. Kobayashi, J. Normand, 
 K. Raghavachari, A. P. Rendell, J. C. Burant, S. S. Iyengar, 
 J. Tomasi, M. Cossi, J. M. Millam, M. Klene, C. Adamo, R. Cammi, 
 J. W. Ochterski, R. L. Martin, K. Morokuma, O. Farkas, 
 J. B. Foresman, and D. J. Fox, Gaussian, Inc., Wallingford CT, 2019.
 
 ******************************************
 Gaussian 16:  ES64L-G16RevC.01  3-Jul-2019
                 4-Mar-2025 
 ******************************************
 %nprocshared=20
 Will use up to   20 processors via shared memory.
 %mem=10000MW
 %chk=21.chk
 ------------------------------------
 # opt freq m062x/aug-cc-pvtz pop=nbo
 ------------------------------------
 1/18=20,19=15,26=3,38=1/1,3;
 2/9=110,12=2,17=6,18=5,40=1/2;
 3/5=16,6=1,7=10,11=2,25=1,30=1,71=1,74=-55/1,2,3;
 4//1;
 5/5=2,38=5/2;
 6/7=2,8=2,9=2,10=2,28=1,40=1/1,7;
 7//1,2,3,16;
 1/18=20,19=15,26=3/3(2);
 2/9=110/2;
 99//99;
 2/9=110/2;
 3/5=16,6=1,7=10,11=2,25=1,30=1,71=1,74=-55/1,2,3;
 4/5=5,16=3,69=1/1;
 5/5=2,38=5/2;
 7//1,2,3,16;
 1/18=20,19=15,26=3/3(-5);
 2/9=110/2;
 6/7=2,8=2,9=2,10=2,19=2,28=1,40=1/1,7;
 99/9=1/99;
 --
 21
 --
 Symbolic Z-matrix:
 Charge =  0 Multiplicity = 1
 C                    -2.37307  -0.74114  -1.16629 
 C                    -2.37052  -1.36366  -2.35868 
 C                    -2.37623  -0.66041  -3.50153 
 C                    -2.38489   0.68558  -3.53193 
 C                    -2.38725   1.29436  -2.33004 
 C                    -2.38161   0.60509  -1.1771 
 O                    -2.38999   1.32058  -4.75089 
 C                    -2.39679   2.72898  -4.78204 
 C                    -2.3672   -1.4508    0.0019 
 O                    -2.36911  -0.89008   1.08263 
 O                    -2.3586   -2.8105    0.003 
 H                    -2.36355  -2.46132  -2.45085 
 H                    -2.37369  -1.20756  -4.46055 
 H                    -2.39405   2.3937   -2.25538 
 H                    -2.38421   1.19336  -0.24407 
 H                    -2.3994    3.04516  -5.84942 
 H                    -3.32024   3.12222  -4.30143 
 H                    -1.47626   3.13109  -4.3032 
 H                    -2.3553   -3.16296   0.90447 
 

 GradGradGradGradGradGradGradGradGradGradGradGradGradGradGradGradGradGrad
 Berny optimization.
 Initialization pass.
                           ----------------------------
                           !    Initial Parameters    !
                           ! (Angstroms and Degrees)  !
 --------------------------                            --------------------------
 ! Name  Definition              Value          Derivative Info.                !
 --------------------------------------------------------------------------------
 ! R1    R(1,2)                  1.3451         estimate D2E/DX2                !
 ! R2    R(1,6)                  1.3463         estimate D2E/DX2                !
 ! R3    R(1,9)                  1.3669         estimate D2E/DX2                !
 ! R4    R(2,3)                  1.3419         estimate D2E/DX2                !
 ! R5    R(2,12)                 1.1015         estimate D2E/DX2                !
 ! R6    R(3,4)                  1.3464         estimate D2E/DX2                !
 ! R7    R(3,13)                 1.1041         estimate D2E/DX2                !
 ! R8    R(4,5)                  1.3473         estimate D2E/DX2                !
 ! R9    R(4,7)                  1.3745         estimate D2E/DX2                !
 ! R10   R(5,6)                  1.3433         estimate D2E/DX2                !
 ! R11   R(5,14)                 1.1019         estimate D2E/DX2                !
 ! R12   R(6,15)                 1.103          estimate D2E/DX2                !
 ! R13   R(7,8)                  1.4088         estimate D2E/DX2                !
 ! R14   R(8,16)                 1.1132         estimate D2E/DX2                !
 ! R15   R(8,17)                 1.1128         estimate D2E/DX2                !
 ! R16   R(8,18)                 1.1128         estimate D2E/DX2                !
 ! R17   R(9,10)                 1.2175         estimate D2E/DX2                !
 ! R18   R(9,11)                 1.3597         estimate D2E/DX2                !
 ! R19   R(11,19)                0.9679         estimate D2E/DX2                !
 ! A1    A(2,1,6)              117.1083         estimate D2E/DX2                !
 ! A2    A(2,1,9)              121.1529         estimate D2E/DX2                !
 ! A3    A(6,1,9)              121.7388         estimate D2E/DX2                !
 ! A4    A(1,2,3)              120.8252         estimate D2E/DX2                !
 ! A5    A(1,2,12)             122.368          estimate D2E/DX2                !
 ! A6    A(3,2,12)             116.8068         estimate D2E/DX2                !
 ! A7    A(2,3,4)              122.9006         estimate D2E/DX2                !
 ! A8    A(2,3,13)             118.6871         estimate D2E/DX2                !
 ! A9    A(4,3,13)             118.4123         estimate D2E/DX2                !
 ! A10   A(3,4,5)              115.5695         estimate D2E/DX2                !
 ! A11   A(3,4,7)              118.8113         estimate D2E/DX2                !
 ! A12   A(5,4,7)              125.6192         estimate D2E/DX2                !
 ! A13   A(4,5,6)              122.2633         estimate D2E/DX2                !
 ! A14   A(4,5,14)             120.7486         estimate D2E/DX2                !
 ! A15   A(6,5,14)             116.9882         estimate D2E/DX2                !
 ! A16   A(1,6,5)              121.333          estimate D2E/DX2                !
 ! A17   A(1,6,15)             121.7715         estimate D2E/DX2                !
 ! A18   A(5,6,15)             116.8954         estimate D2E/DX2                !
 ! A19   A(4,7,8)              118.7843         estimate D2E/DX2                !
 ! A20   A(7,8,16)             107.7679         estimate D2E/DX2                !
 ! A21   A(7,8,17)             110.3491         estimate D2E/DX2                !
 ! A22   A(7,8,18)             110.3498         estimate D2E/DX2                !
 ! A23   A(16,8,17)            108.1664         estimate D2E/DX2                !
 ! A24   A(16,8,18)            108.1729         estimate D2E/DX2                !
 ! A25   A(17,8,18)            111.895          estimate D2E/DX2                !
 ! A26   A(1,9,10)             121.299          estimate D2E/DX2                !
 ! A27   A(1,9,11)             121.3253         estimate D2E/DX2                !
 ! A28   A(10,9,11)            117.3757         estimate D2E/DX2                !
 ! A29   A(9,11,19)            111.4019         estimate D2E/DX2                !
 ! D1    D(6,1,2,3)              0.0034         estimate D2E/DX2                !
 ! D2    D(6,1,2,12)           179.992          estimate D2E/DX2                !
 ! D3    D(9,1,2,3)           -179.9956         estimate D2E/DX2                !
 ! D4    D(9,1,2,12)            -0.0069         estimate D2E/DX2                !
 ! D5    D(2,1,6,5)             -0.0029         estimate D2E/DX2                !
 ! D6    D(2,1,6,15)          -179.9976         estimate D2E/DX2                !
 ! D7    D(9,1,6,5)            179.996          estimate D2E/DX2                !
 ! D8    D(9,1,6,15)             0.0014         estimate D2E/DX2                !
 ! D9    D(2,1,9,10)           179.9792         estimate D2E/DX2                !
 ! D10   D(2,1,9,11)            -0.0015         estimate D2E/DX2                !
 ! D11   D(6,1,9,10)            -0.0198         estimate D2E/DX2                !
 ! D12   D(6,1,9,11)           179.9996         estimate D2E/DX2                !
 ! D13   D(1,2,3,4)             -0.0084         estimate D2E/DX2                !
 ! D14   D(1,2,3,13)           179.988          estimate D2E/DX2                !
 ! D15   D(12,2,3,4)          -179.9977         estimate D2E/DX2                !
 ! D16   D(12,2,3,13)           -0.0013         estimate D2E/DX2                !
 ! D17   D(2,3,4,5)              0.0121         estimate D2E/DX2                !
 ! D18   D(2,3,4,7)            179.9881         estimate D2E/DX2                !
 ! D19   D(13,3,4,5)          -179.9843         estimate D2E/DX2                !
 ! D20   D(13,3,4,7)            -0.0083         estimate D2E/DX2                !
 ! D21   D(3,4,5,6)             -0.0115         estimate D2E/DX2                !
 ! D22   D(3,4,5,14)           179.9913         estimate D2E/DX2                !
 ! D23   D(7,4,5,6)           -179.9856         estimate D2E/DX2                !
 ! D24   D(7,4,5,14)             0.0172         estimate D2E/DX2                !
 ! D25   D(3,4,7,8)           -179.8953         estimate D2E/DX2                !
 ! D26   D(5,4,7,8)              0.078          estimate D2E/DX2                !
 ! D27   D(4,5,6,1)              0.0075         estimate D2E/DX2                !
 ! D28   D(4,5,6,15)          -179.9976         estimate D2E/DX2                !
 ! D29   D(14,5,6,1)          -179.9953         estimate D2E/DX2                !
 ! D30   D(14,5,6,15)           -0.0003         estimate D2E/DX2                !
 ! D31   D(4,7,8,16)           179.9615         estimate D2E/DX2                !
 ! D32   D(4,7,8,17)           -62.1316         estimate D2E/DX2                !
 ! D33   D(4,7,8,18)            62.0464         estimate D2E/DX2                !
 ! D34   D(1,9,11,19)          180.0            estimate D2E/DX2                !
 ! D35   D(10,9,11,19)           0.0186         estimate D2E/DX2                !
 --------------------------------------------------------------------------------
 Trust Radius=3.00D-01 FncErr=1.00D-07 GrdErr=1.00D-06 EigMax=2.50D+02 EigMin=1.00D-04
 Number of steps in this run=     93 maximum allowed number of steps=    114.
 GradGradGradGradGradGradGradGradGradGradGradGradGradGradGradGradGradGrad

                          Input orientation:                          
 ---------------------------------------------------------------------
 Center     Atomic      Atomic             Coordinates (Angstroms)
 Number     Number       Type             X           Y           Z
 ---------------------------------------------------------------------
      1          6           0       -2.373073   -0.741138   -1.166292
      2          6           0       -2.370520   -1.363656   -2.358680
      3          6           0       -2.376235   -0.660413   -3.501526
      4          6           0       -2.384886    0.685577   -3.531928
      5          6           0       -2.387254    1.294364   -2.330042
      6          6           0       -2.381607    0.605093   -1.177096
      7          8           0       -2.389993    1.320578   -4.750889
      8          6           0       -2.396788    2.728976   -4.782039
      9          6           0       -2.367200   -1.450800    0.001900
     10          8           0       -2.369113   -0.890077    1.082626
     11          8           0       -2.358600   -2.810500    0.003000
     12          1           0       -2.363550   -2.461320   -2.450852
     13          1           0       -2.373686   -1.207563   -4.460546
     14          1           0       -2.394049    2.393704   -2.255383
     15          1           0       -2.384206    1.193359   -0.244069
     16          1           0       -2.399400    3.045159   -5.849422
     17          1           0       -3.320236    3.122222   -4.301434
     18          1           0       -1.476258    3.131091   -4.303196
     19          1           0       -2.355302   -3.162962    0.904471
 ---------------------------------------------------------------------
                    Distance matrix (angstroms):
                    1          2          3          4          5
     1  C    0.000000
     2  C    1.345112   0.000000
     3  C    2.336631   1.341894   0.000000
     4  C    2.762588   2.361372   1.346361   0.000000
     5  C    2.344735   2.658227   2.278958   1.347278   0.000000
     6  C    1.346301   2.296135   2.646603   2.356210   1.343284
     7  O    4.135251   3.595575   2.342098   1.374452   2.420991
     8  C    5.011575   4.756364   3.623271   2.395495   2.840861
     9  C    1.366867   2.362191   3.591488   4.129451   3.601983
    10  O    2.253848   3.473740   4.589907   4.876172   4.051964
    11  O    2.376912   2.769663   4.111555   4.971817   4.721632
    12  H    2.146908   1.101549   2.085028   3.327483   3.757701
    13  H    3.327111   2.107656   1.104129   2.108658   3.286164
    14  H    3.318703   3.758853   3.298608   2.132452   1.101893
    15  H    2.143104   3.318146   3.748007   3.326839   2.088419
    16  H    6.022329   5.623501   4.386846   3.307357   3.930835
    17  H    5.064759   4.979895   3.979864   2.721076   2.845682
    18  H    5.063457   4.978313   3.978459   2.720477   2.845491
    19  H    3.186473   3.726378   5.067149   5.873140   5.507345
                    6          7          8          9         10
     6  C    0.000000
     7  O    3.644721   0.000000
     8  C    4.184104   1.408758   0.000000
     9  C    2.370007   5.501823   6.352753   0.000000
    10  O    2.709619   6.238376   6.891488   1.217532   0.000000
    11  O    3.613783   6.298115   7.320099   1.359728   2.203118
    12  H    3.320492   4.426469   5.689878   2.652764   3.867080
    13  H    3.750577   2.544811   3.949713   4.469075   5.552259
    14  H    2.088537   2.716462   2.548805   4.458279   4.682536
    15  H    1.102997   4.508619   4.790767   2.655629   2.470031
    16  H    5.271136   2.044759   1.113232   7.379204   7.971217
    17  H    4.120492   2.076844   1.112825   6.351337   6.781687
    18  H    4.119809   2.076848   1.112818   6.349910   6.780418
    19  H    4.304864   7.217093   8.188593   1.935530   2.279898
                   11         12         13         14         15
    11  O    0.000000
    12  H    2.478576   0.000000
    13  H    4.742666   2.368730   0.000000
    14  H    5.673208   4.859053   4.222829   0.000000
    15  H    4.011556   4.269309   4.852135   2.342286   0.000000
    16  H    8.278964   6.470925   4.473844   3.652607   5.903336
    17  H    7.392569   5.959517   4.434897   2.361120   4.588994
    18  H    7.390829   5.957644   4.433290   2.362122   4.588647
    19  H    0.967931   3.427909   5.710283   6.392395   4.505276
                   16         17         18         19
    16  H    0.000000
    17  H    1.802816   0.000000
    18  H    1.802884   1.844000   0.000000
    19  H    9.173755   8.218034   8.216302   0.000000
 Stoichiometry    C8H8O3
 Framework group  C1[X(C8H8O3)]
 Deg. of freedom    51
 Full point group                 C1      NOp   1
 Largest Abelian subgroup         C1      NOp   1
 Largest concise Abelian subgroup C1      NOp   1
                         Standard orientation:                         
 ---------------------------------------------------------------------
 Center     Atomic      Atomic             Coordinates (Angstroms)
 Number     Number       Type             X           Y           Z
 ---------------------------------------------------------------------
      1          6           0        1.116741   -0.035316   -0.000176
      2          6           0        0.562389    1.190253   -0.000035
      3          6           0       -0.770914    1.341857   -0.000195
      4          6           0       -1.625263    0.301292   -0.000666
      5          6           0       -1.054964   -0.919330   -0.000717
      6          6           0        0.277667   -1.088161   -0.000552
      7          8           0       -2.976365    0.553563   -0.000545
      8          6           0       -3.869796   -0.535647    0.001217
      9          6           0        2.473952   -0.197505    0.000074
     10          8           0        2.978552   -1.305549    0.000326
     11          8           0        3.313698    0.871928    0.000445
     12          1           0        1.167064    2.111002    0.000397
     13          1           0       -1.188101    2.364136    0.000132
     14          1           0       -1.674455   -1.830592   -0.000944
     15          1           0        0.649031   -2.126761   -0.000651
     16          1           0       -4.904905   -0.125973    0.001732
     17          1           0       -3.738437   -1.145388   -0.920380
     18          1           0       -3.736761   -1.143792    0.923619
     19          1           0        4.240619    0.593167    0.000585
 ---------------------------------------------------------------------
 Rotational constants (GHZ):           3.7479970           0.5861326           0.5086142
 Standard basis: Aug-CC-pVTZ (5D, 7F)
 There are   805 symmetry adapted cartesian basis functions of A   symmetry.
 There are   690 symmetry adapted basis functions of A   symmetry.
   690 basis functions,  1008 primitive gaussians,   805 cartesian basis functions
    40 alpha electrons       40 beta electrons
       nuclear repulsion energy       586.6736168982 Hartrees.
 NAtoms=   19 NActive=   19 NUniq=   19 SFac= 1.00D+00 NAtFMM=   60 NAOKFM=F Big=F
 Integral buffers will be    131072 words long.
 Raffenetti 2 integral format.
 Two-electron integral symmetry is turned on.
 One-electron integrals computed using PRISM.
 NBasis=   690 RedAO= T EigKep=  1.08D-06  NBF=   690
 NBsUse=   687 1.00D-06 EigRej=  8.18D-07 NBFU=   687
 ExpMin= 2.53D-02 ExpMax= 1.53D+04 ExpMxC= 5.22D+02 IAcc=3 IRadAn=         5 AccDes= 0.00D+00
 Harris functional with IExCor= 1009 and IRadAn=       5 diagonalized for initial guess.
 HarFok:  IExCor= 1009 AccDes= 0.00D+00 IRadAn=         5 IDoV= 1 UseB2=F ITyADJ=14
 ICtDFT=  3500011 ScaDFX=  1.000000  1.000000  1.000000  1.000000
 FoFCou: FMM=F IPFlag=           0 FMFlag=      100000 FMFlg1=           0
         NFxFlg=           0 DoJE=T BraDBF=F KetDBF=T FulRan=T
         wScrn=  0.000000 ICntrl=       500 IOpCl=  0 I1Cent=   200000004 NGrid=           0
         NMat0=    1 NMatS0=      1 NMatT0=    0 NMatD0=    1 NMtDS0=    0 NMtDT0=    0
 Petite list used in FoFCou.
 Requested convergence on RMS density matrix=1.00D-08 within 128 cycles.
 Requested convergence on MAX density matrix=1.00D-06.
 Requested convergence on             energy=1.00D-06.
 No special actions if energy rises.
 SCF Done:  E(RM062X) =  -535.315759615     A.U. after   14 cycles
            NFock= 14  Conv=0.36D-08     -V/T= 2.0038

 **********************************************************************

            Population analysis using the SCF Density.

 **********************************************************************

 Orbital symmetries:
       Occupied  (A) (A) (A) (A) (A) (A) (A) (A) (A) (A) (A) (A)
                 (A) (A) (A) (A) (A) (A) (A) (A) (A) (A) (A) (A)
                 (A) (A) (A) (A) (A) (A) (A) (A) (A) (A) (A) (A)
                 (A) (A) (A) (A)
       Virtual   (A) (A) (A) (A) (A) (A) (A) (A) (A) (A) (A) (A)
                 (A) (A) (A) (A) (A) (A) (A) (A) (A) (A) (A) (A)
                 (A) (A) (A) (A) (A) (A) (A) (A) (A) (A) (A) (A)
                 (A) (A) (A) (A) (A) (A) (A) (A) (A) (A) (A) (A)
                 (A) (A) (A) (A) (A) (A) (A) (A) (A) (A) (A) (A)
                 (A) (A) (A) (A) (A) (A) (A) (A) (A) (A) (A) (A)
                 (A) (A) (A) (A) (A) (A) (A) (A) (A) (A) (A) (A)
                 (A) (A) (A) (A) (A) (A) (A) (A) (A) (A) (A) (A)
                 (A) (A) (A) (A) (A) (A) (A) (A) (A) (A) (A) (A)
                 (A) (A) (A) (A) (A) (A) (A) (A) (A) (A) (A) (A)
                 (A) (A) (A) (A) (A) (A) (A) (A) (A) (A) (A) (A)
                 (A) (A) (A) (A) (A) (A) (A) (A) (A) (A) (A) (A)
                 (A) (A) (A) (A) (A) (A) (A) (A) (A) (A) (A) (A)
                 (A) (A) (A) (A) (A) (A) (A) (A) (A) (A) (A) (A)
                 (A) (A) (A) (A) (A) (A) (A) (A) (A) (A) (A) (A)
                 (A) (A) (A) (A) (A) (A) (A) (A) (A) (A) (A) (A)
                 (A) (A) (A) (A) (A) (A) (A) (A) (A) (A) (A) (A)
                 (A) (A) (A) (A) (A) (A) (A) (A) (A) (A) (A) (A)
                 (A) (A) (A) (A) (A) (A) (A) (A) (A) (A) (A) (A)
                 (A) (A) (A) (A) (A) (A) (A) (A) (A) (A) (A) (A)
                 (A) (A) (A) (A) (A) (A) (A) (A) (A) (A) (A) (A)
                 (A) (A) (A) (A) (A) (A) (A) (A) (A) (A) (A) (A)
                 (A) (A) (A) (A) (A) (A) (A) (A) (A) (A) (A) (A)
                 (A) (A) (A) (A) (A) (A) (A) (A) (A) (A) (A) (A)
                 (A) (A) (A) (A) (A) (A) (A) (A) (A) (A) (A) (A)
                 (A) (A) (A) (A) (A) (A) (A) (A) (A) (A) (A) (A)
                 (A) (A) (A) (A) (A) (A) (A) (A) (A) (A) (A) (A)
                 (A) (A) (A) (A) (A) (A) (A) (A) (A) (A) (A) (A)
                 (A) (A) (A) (A) (A) (A) (A) (A) (A) (A) (A) (A)
                 (A) (A) (A) (A) (A) (A) (A) (A) (A) (A) (A) (A)
                 (A) (A) (A) (A) (A) (A) (A) (A) (A) (A) (A) (A)
                 (A) (A) (A) (A) (A) (A) (A) (A) (A) (A) (A) (A)
                 (A) (A) (A) (A) (A) (A) (A) (A) (A) (A) (A) (A)
                 (A) (A) (A) (A) (A) (A) (A) (A) (A) (A) (A) (A)
                 (A) (A) (A) (A) (A) (A) (A) (A) (A) (A) (A) (A)
                 (A) (A) (A) (A) (A) (A) (A) (A) (A) (A) (A) (A)
                 (A) (A) (A) (A) (A) (A) (A) (A) (A) (A) (A) (A)
                 (A) (A) (A) (A) (A) (A) (A) (A) (A) (A) (A) (A)
                 (A) (A) (A) (A) (A) (A) (A) (A) (A) (A) (A) (A)
                 (A) (A) (A) (A) (A) (A) (A) (A) (A) (A) (A) (A)
                 (A) (A) (A) (A) (A) (A) (A) (A) (A) (A) (A) (A)
                 (A) (A) (A) (A) (A) (A) (A) (A) (A) (A) (A) (A)
                 (A) (A) (A) (A) (A) (A) (A) (A) (A) (A) (A) (A)
                 (A) (A) (A) (A) (A) (A) (A) (A) (A) (A) (A) (A)
                 (A) (A) (A) (A) (A) (A) (A) (A) (A) (A) (A) (A)
                 (A) (A) (A) (A) (A) (A) (A) (A) (A) (A) (A) (A)
                 (A) (A) (A) (A) (A) (A) (A) (A) (A) (A) (A) (A)
                 (A) (A) (A) (A) (A) (A) (A) (A) (A) (A) (A) (A)
                 (A) (A) (A) (A) (A) (A) (A) (A) (A) (A) (A) (A)
                 (A) (A) (A) (A) (A) (A) (A) (A) (A) (A) (A) (A)
                 (A) (A) (A) (A) (A) (A) (A) (A) (A) (A) (A) (A)
                 (A) (A) (A) (A) (A) (A) (A) (A) (A) (A) (A) (A)
                 (A) (A) (A) (A) (A) (A) (A) (A) (A) (A) (A) (A)
                 (A) (A) (A) (A) (A) (A) (A) (A) (A) (A) (A)
 The electronic state is 1-A.
 Alpha  occ. eigenvalues --  -19.67237 -19.66544 -19.60126 -10.66763 -10.61531
 Alpha  occ. eigenvalues --  -10.60884 -10.55422 -10.55302 -10.54714 -10.54337
 Alpha  occ. eigenvalues --  -10.54237  -1.22967  -1.20625  -1.12674  -1.01036
 Alpha  occ. eigenvalues --   -0.90466  -0.87491  -0.81778  -0.75750  -0.71323
 Alpha  occ. eigenvalues --   -0.68330  -0.64070  -0.60956  -0.58136  -0.56691
 Alpha  occ. eigenvalues --   -0.56130  -0.54100  -0.52416  -0.50662  -0.49430
 Alpha  occ. eigenvalues --   -0.49352  -0.47637  -0.45792  -0.43514  -0.41591
 Alpha  occ. eigenvalues --   -0.39938  -0.38881  -0.35164  -0.33412  -0.30622
 Alpha virt. eigenvalues --   -0.02269  -0.00988  -0.00083   0.00640   0.01279
 Alpha virt. eigenvalues --    0.01335   0.01599   0.02410   0.03242   0.03837
 Alpha virt. eigenvalues --    0.03991   0.04911   0.05692   0.05912   0.07155
 Alpha virt. eigenvalues --    0.07489   0.07881   0.08005   0.08324   0.08473
 Alpha virt. eigenvalues --    0.08515   0.09623   0.09713   0.10073   0.10455
 Alpha virt. eigenvalues --    0.10608   0.10791   0.11061   0.11825   0.11834
 Alpha virt. eigenvalues --    0.12456   0.13270   0.13313   0.13391   0.14130
 Alpha virt. eigenvalues --    0.15016   0.16042   0.16465   0.17128   0.17687
 Alpha virt. eigenvalues --    0.18035   0.18772   0.19679   0.19933   0.19965
 Alpha virt. eigenvalues --    0.20478   0.20565   0.20961   0.21773   0.22561
 Alpha virt. eigenvalues --    0.22940   0.23047   0.23379   0.23569   0.23730
 Alpha virt. eigenvalues --    0.23855   0.24879   0.25091   0.25497   0.25735
 Alpha virt. eigenvalues --    0.26670   0.26977   0.27124   0.28016   0.28145
 Alpha virt. eigenvalues --    0.28273   0.28589   0.29538   0.29835   0.30539
 Alpha virt. eigenvalues --    0.30771   0.31939   0.32322   0.32802   0.33517
 Alpha virt. eigenvalues --    0.34100   0.34173   0.34350   0.34447   0.35314
 Alpha virt. eigenvalues --    0.35416   0.36320   0.36500   0.36890   0.37325
 Alpha virt. eigenvalues --    0.37376   0.37731   0.38092   0.38213   0.38428
 Alpha virt. eigenvalues --    0.38650   0.39738   0.39997   0.40257   0.40640
 Alpha virt. eigenvalues --    0.40995   0.41956   0.42469   0.42687   0.43240
 Alpha virt. eigenvalues --    0.43508   0.43702   0.44109   0.45581   0.46024
 Alpha virt. eigenvalues --    0.46553   0.46917   0.47165   0.48580   0.48726
 Alpha virt. eigenvalues --    0.48884   0.49558   0.51085   0.51637   0.52560
 Alpha virt. eigenvalues --    0.53099   0.53714   0.54835   0.55322   0.55565
 Alpha virt. eigenvalues --    0.55899   0.56394   0.56751   0.56920   0.58060
 Alpha virt. eigenvalues --    0.58271   0.59007   0.59511   0.60351   0.62356
 Alpha virt. eigenvalues --    0.63729   0.63823   0.64634   0.65487   0.66090
 Alpha virt. eigenvalues --    0.66674   0.67193   0.67743   0.68255   0.69032
 Alpha virt. eigenvalues --    0.69671   0.70269   0.70637   0.71462   0.72061
 Alpha virt. eigenvalues --    0.73031   0.73050   0.73509   0.74350   0.75045
 Alpha virt. eigenvalues --    0.75678   0.75948   0.76526   0.76713   0.77180
 Alpha virt. eigenvalues --    0.77650   0.78047   0.78064   0.78745   0.79162
 Alpha virt. eigenvalues --    0.79355   0.80104   0.80893   0.81536   0.81981
 Alpha virt. eigenvalues --    0.82509   0.83255   0.83402   0.83629   0.84167
 Alpha virt. eigenvalues --    0.84186   0.84949   0.85516   0.86206   0.87213
 Alpha virt. eigenvalues --    0.87225   0.87900   0.88726   0.88888   0.89603
 Alpha virt. eigenvalues --    0.89756   0.90475   0.90862   0.91465   0.92852
 Alpha virt. eigenvalues --    0.92918   0.93739   0.94144   0.94434   0.95005
 Alpha virt. eigenvalues --    0.95102   0.95562   0.97222   0.97378   0.97989
 Alpha virt. eigenvalues --    0.98718   0.99805   1.00299   1.00568   1.01177
 Alpha virt. eigenvalues --    1.01717   1.02487   1.03060   1.03663   1.03918
 Alpha virt. eigenvalues --    1.04597   1.05403   1.05815   1.06016   1.06408
 Alpha virt. eigenvalues --    1.06603   1.07305   1.07509   1.08585   1.09944
 Alpha virt. eigenvalues --    1.10189   1.11098   1.11260   1.11645   1.12531
 Alpha virt. eigenvalues --    1.13488   1.13525   1.14517   1.15643   1.15765
 Alpha virt. eigenvalues --    1.16680   1.17374   1.17905   1.19399   1.19858
 Alpha virt. eigenvalues --    1.20570   1.21547   1.24112   1.24698   1.25297
 Alpha virt. eigenvalues --    1.25361   1.26358   1.27187   1.28803   1.29211
 Alpha virt. eigenvalues --    1.29316   1.30151   1.32472   1.33296   1.33505
 Alpha virt. eigenvalues --    1.33520   1.35171   1.35715   1.36638   1.36843
 Alpha virt. eigenvalues --    1.37826   1.39402   1.40010   1.41247   1.41711
 Alpha virt. eigenvalues --    1.43805   1.44167   1.44870   1.44933   1.45683
 Alpha virt. eigenvalues --    1.46069   1.46264   1.46727   1.48865   1.50456
 Alpha virt. eigenvalues --    1.50567   1.51386   1.52063   1.52396   1.53239
 Alpha virt. eigenvalues --    1.54314   1.54676   1.55682   1.55941   1.56023
 Alpha virt. eigenvalues --    1.57772   1.59259   1.59599   1.60454   1.60756
 Alpha virt. eigenvalues --    1.60938   1.63808   1.64177   1.64710   1.65741
 Alpha virt. eigenvalues --    1.67038   1.67276   1.67677   1.69599   1.70211
 Alpha virt. eigenvalues --    1.70381   1.71649   1.72688   1.72699   1.73880
 Alpha virt. eigenvalues --    1.74329   1.75570   1.77305   1.78005   1.78562
 Alpha virt. eigenvalues --    1.79126   1.79549   1.81213   1.81462   1.83069
 Alpha virt. eigenvalues --    1.83897   1.84863   1.85637   1.86817   1.87534
 Alpha virt. eigenvalues --    1.88373   1.88471   1.89104   1.90450   1.90906
 Alpha virt. eigenvalues --    1.92029   1.93604   1.95042   1.95708   1.97310
 Alpha virt. eigenvalues --    1.97990   1.98715   1.98958   1.99521   2.01928
 Alpha virt. eigenvalues --    2.02451   2.02876   2.04516   2.05209   2.06858
 Alpha virt. eigenvalues --    2.08554   2.09212   2.10499   2.12474   2.12619
 Alpha virt. eigenvalues --    2.15340   2.15452   2.16366   2.17016   2.18773
 Alpha virt. eigenvalues --    2.19276   2.21705   2.22988   2.23666   2.25389
 Alpha virt. eigenvalues --    2.27026   2.27185   2.27795   2.30955   2.32826
 Alpha virt. eigenvalues --    2.33396   2.34367   2.37568   2.38821   2.39581
 Alpha virt. eigenvalues --    2.40694   2.42667   2.42701   2.43631   2.44987
 Alpha virt. eigenvalues --    2.46071   2.47493   2.47776   2.51188   2.52269
 Alpha virt. eigenvalues --    2.53888   2.54036   2.55060   2.56384   2.57400
 Alpha virt. eigenvalues --    2.57855   2.58421   2.60811   2.61856   2.67433
 Alpha virt. eigenvalues --    2.69654   2.70324   2.72125   2.72360   2.74560
 Alpha virt. eigenvalues --    2.76255   2.77120   2.78888   2.79154   2.80332
 Alpha virt. eigenvalues --    2.80667   2.84039   2.84339   2.89536   2.90356
 Alpha virt. eigenvalues --    2.93315   2.95174   2.95280   2.98092   2.98173
 Alpha virt. eigenvalues --    2.99279   3.00572   3.01326   3.03965   3.05188
 Alpha virt. eigenvalues --    3.07274   3.08727   3.09521   3.11817   3.13460
 Alpha virt. eigenvalues --    3.13498   3.14040   3.14591   3.15323   3.16152
 Alpha virt. eigenvalues --    3.17833   3.18139   3.18658   3.18900   3.22456
 Alpha virt. eigenvalues --    3.23026   3.25548   3.25716   3.26632   3.26778
 Alpha virt. eigenvalues --    3.29404   3.29703   3.29742   3.32697   3.32743
 Alpha virt. eigenvalues --    3.34307   3.35498   3.35719   3.36849   3.37784
 Alpha virt. eigenvalues --    3.38604   3.40678   3.43118   3.43508   3.44211
 Alpha virt. eigenvalues --    3.45321   3.45511   3.47147   3.48370   3.49392
 Alpha virt. eigenvalues --    3.50074   3.51935   3.52106   3.54139   3.55083
 Alpha virt. eigenvalues --    3.55798   3.57145   3.57428   3.58099   3.59827
 Alpha virt. eigenvalues --    3.60688   3.63560   3.64038   3.64867   3.65570
 Alpha virt. eigenvalues --    3.66529   3.66691   3.68340   3.69103   3.70230
 Alpha virt. eigenvalues --    3.72487   3.73073   3.75913   3.77226   3.77434
 Alpha virt. eigenvalues --    3.78159   3.79779   3.81465   3.81752   3.84395
 Alpha virt. eigenvalues --    3.85194   3.85890   3.86966   3.88427   3.89067
 Alpha virt. eigenvalues --    3.90269   3.92750   3.92834   3.93391   3.94456
 Alpha virt. eigenvalues --    3.95833   3.96621   3.97500   3.97622   3.98698
 Alpha virt. eigenvalues --    3.99417   4.00426   4.01598   4.01783   4.02564
 Alpha virt. eigenvalues --    4.04167   4.07307   4.08344   4.08535   4.09523
 Alpha virt. eigenvalues --    4.10824   4.12200   4.13915   4.14090   4.14726
 Alpha virt. eigenvalues --    4.17599   4.19479   4.20436   4.20976   4.22246
 Alpha virt. eigenvalues --    4.24168   4.24864   4.25650   4.27363   4.29232
 Alpha virt. eigenvalues --    4.30975   4.33191   4.34007   4.36325   4.39550
 Alpha virt. eigenvalues --    4.41591   4.41888   4.43163   4.44438   4.45445
 Alpha virt. eigenvalues --    4.46156   4.46691   4.48954   4.50008   4.51915
 Alpha virt. eigenvalues --    4.53427   4.55368   4.58106   4.58659   4.61144
 Alpha virt. eigenvalues --    4.63167   4.63200   4.63833   4.66792   4.67777
 Alpha virt. eigenvalues --    4.68383   4.68664   4.69816   4.72001   4.73253
 Alpha virt. eigenvalues --    4.73995   4.76633   4.77099   4.79275   4.79632
 Alpha virt. eigenvalues --    4.80668   4.84902   4.85703   4.88485   4.89586
 Alpha virt. eigenvalues --    4.91587   4.94213   4.97503   4.98934   4.99695
 Alpha virt. eigenvalues --    5.01488   5.02920   5.05412   5.06349   5.06532
 Alpha virt. eigenvalues --    5.09341   5.09372   5.10788   5.14433   5.18845
 Alpha virt. eigenvalues --    5.19283   5.22454   5.22874   5.23734   5.28534
 Alpha virt. eigenvalues --    5.33476   5.36989   5.37469   5.40716   5.43205
 Alpha virt. eigenvalues --    5.52913   5.55486   5.57028   5.59191   5.63736
 Alpha virt. eigenvalues --    5.68719   5.74595   5.78350   5.81083   5.89293
 Alpha virt. eigenvalues --    5.91364   5.95691   6.01592   6.06801   6.12936
 Alpha virt. eigenvalues --    6.15928   6.19333   6.24777   6.25145   6.27677
 Alpha virt. eigenvalues --    6.30065   6.34429   6.37296   6.40095   6.43070
 Alpha virt. eigenvalues --    6.45074   6.49190   6.51621   6.53824   6.56368
 Alpha virt. eigenvalues --    6.56565   6.64103   6.64526   6.69596   6.70572
 Alpha virt. eigenvalues --    6.72424   6.76784   6.79097   6.81168   6.83807
 Alpha virt. eigenvalues --    6.86648   6.91270   6.91740   6.95551   7.01886
 Alpha virt. eigenvalues --    7.04775   7.09064   7.09191   7.14942   7.20613
 Alpha virt. eigenvalues --    7.31627   7.34655   7.35260   7.36042   7.44253
 Alpha virt. eigenvalues --    7.53616   7.69066   7.85759   7.90349   8.03158
 Alpha virt. eigenvalues --    8.07774  15.43117  15.74711  15.89813  17.11131
 Alpha virt. eigenvalues --   17.33033  17.62229  18.32793  19.17957  20.11893
 Alpha virt. eigenvalues --   20.38422  20.87247
          Condensed to atoms (all electrons):
               1          2          3          4          5          6
     1  C    7.258654  -0.516973   0.037212  -0.222134   0.145239  -1.231840
     2  C   -0.516973   7.857558  -0.113626  -0.242998  -0.218658   0.086887
     3  C    0.037212  -0.113626   7.569530  -0.251185  -0.219828  -0.204496
     4  C   -0.222134  -0.242998  -0.251185   6.479984  -0.176655  -0.068130
     5  C    0.145239  -0.218658  -0.219828  -0.176655   7.008892  -0.442073
     6  C   -1.231840   0.086887  -0.204496  -0.068130  -0.442073   9.357633
     7  O   -0.046028   0.139866  -0.240439  -0.004885  -0.416100   0.072255
     8  C   -0.006556   0.012751  -0.072580   0.117691  -0.096595   0.016048
     9  C   -0.621777  -0.689805   0.058262   0.135333  -0.108689  -0.439172
    10  O   -0.128258   0.037027  -0.025930  -0.007304  -0.005986  -0.016451
    11  O   -0.062936  -0.028691   0.001136  -0.013272   0.009439   0.003128
    12  H   -0.466426   0.619195  -0.723407   0.122622  -0.058139   0.162746
    13  H    0.029060  -0.473570   0.701825  -0.395155   0.067180   0.001188
    14  H    0.232942  -0.021519  -0.045263  -0.654984   0.977094  -1.073418
    15  H   -0.705838   0.048454   0.040820   0.111169  -0.742078   0.990815
    16  H   -0.002672   0.007202  -0.006679   0.004918   0.000271   0.003117
    17  H   -0.001680  -0.002044   0.004877   0.008462  -0.026768   0.008522
    18  H   -0.001651  -0.002062   0.004918   0.008438  -0.026692   0.008450
    19  H    0.023167  -0.010647   0.003237   0.002216  -0.002146  -0.029977
               7          8          9         10         11         12
     1  C   -0.046028  -0.006556  -0.621777  -0.128258  -0.062936  -0.466426
     2  C    0.139866   0.012751  -0.689805   0.037027  -0.028691   0.619195
     3  C   -0.240439  -0.072580   0.058262  -0.025930   0.001136  -0.723407
     4  C   -0.004885   0.117691   0.135333  -0.007304  -0.013272   0.122622
     5  C   -0.416100  -0.096595  -0.108689  -0.005986   0.009439  -0.058139
     6  C    0.072255   0.016048  -0.439172  -0.016451   0.003128   0.162746
     7  O    9.239705   0.092419  -0.005089   0.001028   0.000817  -0.002625
     8  C    0.092419   6.006612   0.003759   0.000423   0.000014   0.001410
     9  C   -0.005089   0.003759   7.339484  -0.058016   0.048266   0.104166
    10  O    0.001028   0.000423  -0.058016   9.324032  -0.104547   0.005801
    11  O    0.000817   0.000014   0.048266  -0.104547   8.615115  -0.028052
    12  H   -0.002625   0.001410   0.104166   0.005801  -0.028052   1.453220
    13  H   -0.009907  -0.013233  -0.022541  -0.000453  -0.004056  -0.184817
    14  H   -0.049017  -0.162632  -0.073704  -0.004395   0.001609  -0.011314
    15  H    0.000821   0.006349   0.237846  -0.007703  -0.005403   0.010914
    16  H   -0.031939   0.385569   0.000129   0.000035  -0.000002   0.000120
    17  H   -0.005566   0.354222   0.000854  -0.000068  -0.000053   0.000252
    18  H   -0.005419   0.354134   0.000846  -0.000067  -0.000053   0.000242
    19  H   -0.000151  -0.000003   0.075485  -0.101841   0.156793  -0.005845
              13         14         15         16         17         18
     1  C    0.029060   0.232942  -0.705838  -0.002672  -0.001680  -0.001651
     2  C   -0.473570  -0.021519   0.048454   0.007202  -0.002044  -0.002062
     3  C    0.701825  -0.045263   0.040820  -0.006679   0.004877   0.004918
     4  C   -0.395155  -0.654984   0.111169   0.004918   0.008462   0.008438
     5  C    0.067180   0.977094  -0.742078   0.000271  -0.026768  -0.026692
     6  C    0.001188  -1.073418   0.990815   0.003117   0.008522   0.008450
     7  O   -0.009907  -0.049017   0.000821  -0.031939  -0.005566  -0.005419
     8  C   -0.013233  -0.162632   0.006349   0.385569   0.354222   0.354134
     9  C   -0.022541  -0.073704   0.237846   0.000129   0.000854   0.000846
    10  O   -0.000453  -0.004395  -0.007703   0.000035  -0.000068  -0.000067
    11  O   -0.004056   0.001609  -0.005403  -0.000002  -0.000053  -0.000053
    12  H   -0.184817  -0.011314   0.010914   0.000120   0.000252   0.000242
    13  H    1.008838   0.014662  -0.004176  -0.002299  -0.000485  -0.000442
    14  H    0.014662   1.996892  -0.345661  -0.007630  -0.038512  -0.038337
    15  H   -0.004176  -0.345661   1.493471   0.001078   0.000362   0.000350
    16  H   -0.002299  -0.007630   0.001078   0.383146  -0.016002  -0.016028
    17  H   -0.000485  -0.038512   0.000362  -0.016002   0.356243   0.005954
    18  H   -0.000442  -0.038337   0.000350  -0.016028   0.005954   0.356109
    19  H    0.000254  -0.000364  -0.000953  -0.000001   0.000009   0.000009
              19
     1  C    0.023167
     2  C   -0.010647
     3  C    0.003237
     4  C    0.002216
     5  C   -0.002146
     6  C   -0.029977
     7  O   -0.000151
     8  C   -0.000003
     9  C    0.075485
    10  O   -0.101841
    11  O    0.156793
    12  H   -0.005845
    13  H    0.000254
    14  H   -0.000364
    15  H   -0.000953
    16  H   -0.000001
    17  H    0.000009
    18  H    0.000009
    19  H    0.595059
 Mulliken charges:
               1
     1  C    2.288497
     2  C   -0.488346
     3  C   -0.518384
     4  C    1.045869
     5  C    0.332293
     6  C   -1.205234
     7  O   -0.729747
     8  C   -0.999803
     9  C    0.014362
    10  O   -0.907327
    11  O   -0.589253
    12  H   -0.000062
    13  H    0.288129
    14  H    0.303552
    15  H   -0.130635
    16  H    0.297666
    17  H    0.351422
    18  H    0.351303
    19  H    0.295699
 Sum of Mulliken charges =   0.00000
 Mulliken charges with hydrogens summed into heavy atoms:
               1
     1  C    2.288497
     2  C   -0.488409
     3  C   -0.230255
     4  C    1.045869
     5  C    0.635844
     6  C   -1.335869
     7  O   -0.729747
     8  C    0.000589
     9  C    0.014362
    10  O   -0.907327
    11  O   -0.293555
 Electronic spatial extent (au):  <R**2>=           2090.2833
 Charge=              0.0000 electrons
 Dipole moment (field-independent basis, Debye):
    X=             -2.5992    Y=              0.4286    Z=              0.0015  Tot=              2.6343
 Quadrupole moment (field-independent basis, Debye-Ang):
   XX=            -55.0615   YY=            -64.0243   ZZ=            -65.3444
   XY=             10.7717   XZ=             -0.0075   YZ=              0.0032
 Traceless Quadrupole moment (field-independent basis, Debye-Ang):
   XX=              6.4152   YY=             -2.5475   ZZ=             -3.8677
   XY=             10.7717   XZ=             -0.0075   YZ=              0.0032
 Octapole moment (field-independent basis, Debye-Ang**2):
  XXX=              1.6879  YYY=              6.3121  ZZZ=              0.0077  XYY=            -11.8513
  XXY=              8.6434  XXZ=              0.0324  XZZ=              3.4499  YZZ=             -1.1166
  YYZ=             -0.0016  XYZ=              0.0003
 Hexadecapole moment (field-independent basis, Debye-Ang**3):
 XXXX=          -1724.0144 YYYY=           -399.7010 ZZZZ=            -74.4742 XXXY=            137.6264
 XXXZ=             -0.0675 YYYX=              8.9746 YYYZ=              0.0180 ZZZX=              0.0036
 ZZZY=             -0.0052 XXYY=           -479.3120 XXZZ=           -372.4269 YYZZ=            -88.2250
 XXYZ=              0.0270 YYXZ=              0.0053 ZZXY=              0.2221
 N-N= 5.866736168982D+02 E-N=-2.424572307160D+03  KE= 5.333115207672D+02
 ******************************Gaussian NBO Version 3.1******************************
             N A T U R A L   A T O M I C   O R B I T A L   A N D
          N A T U R A L   B O N D   O R B I T A L   A N A L Y S I S
 ******************************Gaussian NBO Version 3.1******************************
       /RESON  / : Allow strongly delocalized NBO set

 Analyzing the SCF density

 Job title: 21                                                              

 Storage needed:   1431180 in NPA,   1906877 in NBO (********** available)
 GSVD:  LWork=       34308 too small for GESVD, short by      845064 words or      845064 for optimal perf.
 Remove ICRem=   20 ICRemI=   12 L=2 PNAO number   32 atom    1 type 255 NPNAO=  690
   due to symmetric orthogonalization 2, value= 0.00D+00.
 Remove ICRem=   20 ICRemI=   12 L=2 PNAO number   29 atom    1 type 254 NPNAO=  689
   due to symmetric orthogonalization 2, value= 0.00D+00.
 Remove ICRem=   20 ICRemI=   12 L=2 PNAO number   26 atom    1 type 253 NPNAO=  688
   due to symmetric orthogonalization 2, value= 0.00D+00.
 Remove ICRem=   20 ICRemI=   12 L=2 PNAO number   23 atom    1 type 252 NPNAO=  687
   due to symmetric orthogonalization 2, value= 0.00D+00.
 Remove ICRem=   20 ICRemI=   12 L=2 PNAO number   20 atom    1 type 251 NPNAO=  686
   due to symmetric orthogonalization 2, value= 0.00D+00.
 GSVD:  LWork=       43658 too small for GESVD, short by      817059 words or      817059 for optimal perf.
 Remove ICRem=   33 ICRemI=   12 L=3 PNAO number   41 atom    1 type 357 NPNAO=  685
   due to symmetric orthogonalization 2, value= 0.00D+00.
 Remove ICRem=   33 ICRemI=   12 L=3 PNAO number   39 atom    1 type 356 NPNAO=  684
   due to symmetric orthogonalization 2, value= 0.00D+00.
 Remove ICRem=   33 ICRemI=   12 L=3 PNAO number   37 atom    1 type 355 NPNAO=  683
   due to symmetric orthogonalization 2, value= 0.00D+00.
 Remove ICRem=   33 ICRemI=   12 L=3 PNAO number   35 atom    1 type 354 NPNAO=  682
   due to symmetric orthogonalization 2, value= 0.00D+00.
 Remove ICRem=   33 ICRemI=   12 L=3 PNAO number   33 atom    1 type 353 NPNAO=  681
   due to symmetric orthogonalization 2, value= 0.00D+00.
 Remove ICRem=   33 ICRemI=   12 L=3 PNAO number   31 atom    1 type 352 NPNAO=  680
   due to symmetric orthogonalization 2, value= 0.00D+00.
 Remove ICRem=   33 ICRemI=   12 L=3 PNAO number   29 atom    1 type 351 NPNAO=  679
   due to symmetric orthogonalization 2, value= 0.00D+00.
 GSVD:  LWork=       56580 too small for GESVD, short by      778356 words or      778356 for optimal perf.
 Remove ICRem=   39 ICRemI=   12 L=0 PNAO number   39 atom    2 type  51 NPNAO=  678
   due to symmetric orthogonalization 2, value= 0.00D+00.
 GSVD:  LWork=       58410 too small for GESVD, short by      772875 words or      772875 for optimal perf.
 Remove ICRem=  225 ICRemI=  226 L=1 PNAO number  233 atom    6 type 153 NPNAO=  677
   due to symmetric orthogonalization 2, value= 0.00D+00.
 Remove ICRem=  225 ICRemI=  226 L=1 PNAO number  229 atom    6 type 152 NPNAO=  676
   due to symmetric orthogonalization 2, value= 0.00D+00.
 Remove ICRem=  225 ICRemI=  226 L=1 PNAO number  225 atom    6 type 151 NPNAO=  675
   due to symmetric orthogonalization 2, value= 0.00D+00.
 GSVD:  LWork=       63876 too small for GESVD, short by      756504 words or      756504 for optimal perf.

 Computed number of electrons   79.99972044 does not match expected value of    80.


 NATURAL POPULATIONS:  Natural atomic orbital occupancies 
                                                          
   NAO  Atom  No  lang   Type(AO)    Occupancy      Energy
 ----------------------------------------------------------
     1    C    1  S      Cor( 1S)     1.99888     -10.36141
     2    C    1  S      Val( 2S)     0.88828      -0.10167
     3    C    1  S      Ryd( 3S)     0.00170       1.61025
     4    C    1  S      Ryd( 5S)     0.00031       3.42856
     5    C    1  S      Ryd( 4S)     0.00005       3.03552
     6    C    1  px     Val( 2p)     1.11014      -0.10787
     7    C    1  px     Ryd( 4p)     0.00641       2.27117
     8    C    1  px     Ryd( 3p)     0.00017       1.20032
     9    C    1  px     Ryd( 5p)     0.00004       3.18707
    10    C    1  py     Val( 2p)     1.14628      -0.10565
    11    C    1  py     Ryd( 4p)     0.00573       1.80272
    12    C    1  py     Ryd( 3p)     0.00018       1.29265
    13    C    1  py     Ryd( 5p)     0.00016       3.12078
    14    C    1  pz     Val( 2p)     1.09750      -0.13273
    15    C    1  pz     Ryd( 3p)     0.00167       0.89768
    16    C    1  pz     Ryd( 4p)     0.00029       1.04393
    17    C    1  pz     Ryd( 5p)     0.00016       2.39644
    18    C    1  dxy    Ryd( 3d)     0.00080       2.22620
    19    C    1  dxy    Ryd( 4d)     0.00023       3.40699
    20    C    1  dxz    Ryd( 3d)     0.00075       1.13724
    21    C    1  dxz    Ryd( 4d)     0.00012       2.73809
    22    C    1  dyz    Ryd( 3d)     0.00033       1.17314
    23    C    1  dyz    Ryd( 4d)     0.00005       2.61518
    24    C    1  dx2y2  Ryd( 3d)     0.00129       2.92568
    25    C    1  dx2y2  Ryd( 4d)     0.00027       2.97091
    26    C    1  dz2    Ryd( 3d)     0.00083       1.00204
    27    C    1  dz2    Ryd( 4d)     0.00012       3.61138
    28    C    1  f(0)   Ryd( 4f)     0.00023       1.85403
    29    C    1  f(C1)  Ryd( 4f)     0.00037       2.29205
    30    C    1  f(S1)  Ryd( 4f)     0.00060       2.40843
    31    C    1  f(C2)  Ryd( 4f)     0.00046       2.20448
    32    C    1  f(S2)  Ryd( 4f)     0.00055       1.92423
    33    C    1  f(C3)  Ryd( 4f)     0.00073       3.39859
    34    C    1  f(S3)  Ryd( 4f)     0.00094       3.45116
 
    35    C    2  S      Cor( 1S)     1.99877     -10.38758
    36    C    2  S      Val( 2S)     0.91833      -0.10853
    37    C    2  S      Ryd( 4S)     0.00050       4.40445
    38    C    2  S      Ryd( 3S)     0.00005       1.87131
    39    C    2  px     Val( 2p)     1.09312      -0.06921
    40    C    2  px     Ryd( 4p)     0.00380       1.82577
    41    C    2  px     Ryd( 5p)     0.00009       3.11017
    42    C    2  px     Ryd( 3p)     0.00008       1.02936
    43    C    2  py     Val( 2p)     1.12655      -0.06307
    44    C    2  py     Ryd( 4p)     0.00457       1.82994
    45    C    2  py     Ryd( 5p)     0.00008       2.73186
    46    C    2  py     Ryd( 3p)     0.00004       1.19162
    47    C    2  pz     Val( 2p)     0.94528      -0.11991
    48    C    2  pz     Ryd( 4p)     0.00059       0.99947
    49    C    2  pz     Ryd( 5p)     0.00008       1.92370
    50    C    2  pz     Ryd( 3p)     0.00002       0.66597
    51    C    2  dxy    Ryd( 3d)     0.00169       2.52010
    52    C    2  dxy    Ryd( 5d)     0.00015       3.79312
    53    C    2  dxy    Ryd( 4d)     0.00008       2.97031
    54    C    2  dxz    Ryd( 3d)     0.00061       1.65657
    55    C    2  dxz    Ryd( 5d)     0.00004       2.74298
    56    C    2  dxz    Ryd( 4d)     0.00009       2.29406
    57    C    2  dyz    Ryd( 3d)     0.00064       1.34727
    58    C    2  dyz    Ryd( 5d)     0.00003       2.45827
    59    C    2  dyz    Ryd( 4d)     0.00004       2.32842
    60    C    2  dx2y2  Ryd( 5d)     0.00192       3.92952
    61    C    2  dx2y2  Ryd( 3d)     0.00026       3.19944
    62    C    2  dx2y2  Ryd( 4d)     0.00023       3.22362
    63    C    2  dz2    Ryd( 3d)     0.00406       1.64512
    64    C    2  dz2    Ryd( 4d)     0.00023       2.88279
    65    C    2  dz2    Ryd( 5d)     0.00013       3.38856
    66    C    2  f(0)   Ryd( 4f)     0.00012       1.55242
    67    C    2  f(0)   Ryd( 5f)     0.00010       3.37626
    68    C    2  f(C1)  Ryd( 4f)     0.00048       2.01944
    69    C    2  f(C1)  Ryd( 5f)     0.00023       3.60389
    70    C    2  f(S1)  Ryd( 4f)     0.00064       1.97054
    71    C    2  f(S1)  Ryd( 5f)     0.00013       3.58118
    72    C    2  f(C2)  Ryd( 4f)     0.00033       1.59601
    73    C    2  f(C2)  Ryd( 5f)     0.00002       3.48415
    74    C    2  f(S2)  Ryd( 4f)     0.00014       1.58809
    75    C    2  f(S2)  Ryd( 5f)     0.00004       3.49489
    76    C    2  f(C3)  Ryd( 4f)     0.00089       2.93186
    77    C    2  f(C3)  Ryd( 5f)     0.00004       4.09052
    78    C    2  f(S3)  Ryd( 4f)     0.00120       2.04394
    79    C    2  f(S3)  Ryd( 5f)     0.00022       4.19091
 
    80    C    3  S      Cor( 1S)     1.99907     -10.37513
    81    C    3  S      Val( 2S)     0.94676      -0.17722
    82    C    3  S      Ryd( 3S)     0.00225       1.57711
    83    C    3  S      Ryd( 5S)     0.00038       3.09015
    84    C    3  S      Ryd( 4S)     0.00002       2.52945
    85    C    3  px     Val( 2p)     1.09506      -0.07314
    86    C    3  px     Ryd( 4p)     0.00429       1.75273
    87    C    3  px     Ryd( 5p)     0.00026       2.73216
    88    C    3  px     Ryd( 3p)     0.00004       1.11740
    89    C    3  py     Val( 2p)     1.15630      -0.08853
    90    C    3  py     Ryd( 4p)     0.00464       1.78662
    91    C    3  py     Ryd( 5p)     0.00011       2.44218
    92    C    3  py     Ryd( 3p)     0.00004       1.05040
    93    C    3  pz     Val( 2p)     1.03600      -0.12568
    94    C    3  pz     Ryd( 4p)     0.00093       0.99105
    95    C    3  pz     Ryd( 5p)     0.00010       1.63159
    96    C    3  pz     Ryd( 3p)     0.00006       0.72035
    97    C    3  dxy    Ryd( 3d)     0.00265       2.88294
    98    C    3  dxy    Ryd( 5d)     0.00017       3.86946
    99    C    3  dxy    Ryd( 4d)     0.00006       3.02147
   100    C    3  dxz    Ryd( 3d)     0.00035       1.53545
   101    C    3  dxz    Ryd( 5d)     0.00002       3.13068
   102    C    3  dxz    Ryd( 4d)     0.00005       1.93454
   103    C    3  dyz    Ryd( 3d)     0.00049       1.38194
   104    C    3  dyz    Ryd( 5d)     0.00003       3.18007
   105    C    3  dyz    Ryd( 4d)     0.00009       1.58121
   106    C    3  dx2y2  Ryd( 3d)     0.00136       2.43657
   107    C    3  dx2y2  Ryd( 5d)     0.00026       3.90431
   108    C    3  dx2y2  Ryd( 4d)     0.00010       2.95768
   109    C    3  dz2    Ryd( 3d)     0.00128       1.69274
   110    C    3  dz2    Ryd( 5d)     0.00016       4.04184
   111    C    3  dz2    Ryd( 4d)     0.00008       3.88743
   112    C    3  f(0)   Ryd( 4f)     0.00032       1.61506
   113    C    3  f(0)   Ryd( 5f)     0.00014       3.31681
   114    C    3  f(C1)  Ryd( 4f)     0.00147       2.27377
   115    C    3  f(C1)  Ryd( 5f)     0.00015       3.55634
   116    C    3  f(S1)  Ryd( 4f)     0.00055       1.96586
   117    C    3  f(S1)  Ryd( 5f)     0.00014       3.40617
   118    C    3  f(C2)  Ryd( 4f)     0.00014       1.72151
   119    C    3  f(C2)  Ryd( 5f)     0.00004       3.26265
   120    C    3  f(S2)  Ryd( 4f)     0.00010       1.68586
   121    C    3  f(S2)  Ryd( 5f)     0.00006       3.30309
   122    C    3  f(C3)  Ryd( 4f)     0.00064       3.36192
   123    C    3  f(C3)  Ryd( 5f)     0.00018       4.24811
   124    C    3  f(S3)  Ryd( 4f)     0.00073       2.29716
   125    C    3  f(S3)  Ryd( 5f)     0.00032       3.97170
 
   126    C    4  S      Cor( 1S)     1.99852     -10.45975
   127    C    4  S      Val( 2S)     0.83199      -0.12294
   128    C    4  S      Ryd( 3S)     0.00120       2.11468
   129    C    4  S      Ryd( 4S)     0.00008       2.52490
   130    C    4  S      Ryd( 5S)     0.00003       2.59162
   131    C    4  px     Val( 2p)     0.79121      -0.04147
   132    C    4  px     Ryd( 4p)     0.00516       1.75124
   133    C    4  px     Ryd( 5p)     0.00005       1.96447
   134    C    4  px     Ryd( 3p)     0.00004       1.62622
   135    C    4  py     Val( 2p)     1.08203      -0.08172
   136    C    4  py     Ryd( 5p)     0.00453       1.85266
   137    C    4  py     Ryd( 3p)     0.00013       1.31485
   138    C    4  py     Ryd( 4p)     0.00003       1.53093
   139    C    4  pz     Val( 2p)     0.93472      -0.12992
   140    C    4  pz     Ryd( 3p)     0.00061       0.96763
   141    C    4  pz     Ryd( 5p)     0.00016       1.16683
   142    C    4  pz     Ryd( 4p)     0.00003       1.06556
   143    C    4  dxy    Ryd( 3d)     0.00204       3.47123
   144    C    4  dxy    Ryd( 4d)     0.00021       3.47397
   145    C    4  dxy    Ryd( 5d)     0.00009       5.31717
   146    C    4  dxz    Ryd( 3d)     0.00242       1.43147
   147    C    4  dxz    Ryd( 4d)     0.00004       2.51284
   148    C    4  dxz    Ryd( 5d)     0.00006       2.64427
   149    C    4  dyz    Ryd( 3d)     0.00147       1.62017
   150    C    4  dyz    Ryd( 4d)     0.00009       2.49194
   151    C    4  dyz    Ryd( 5d)     0.00003       2.64925
   152    C    4  dx2y2  Ryd( 3d)     0.00067       3.04466
   153    C    4  dx2y2  Ryd( 4d)     0.00022       3.64580
   154    C    4  dx2y2  Ryd( 5d)     0.00006       4.05303
   155    C    4  dz2    Ryd( 3d)     0.00066       2.06119
   156    C    4  dz2    Ryd( 5d)     0.00039       3.96850
   157    C    4  dz2    Ryd( 4d)     0.00008       3.59600
   158    C    4  f(0)   Ryd( 4f)     0.00001       1.50691
   159    C    4  f(0)   Ryd( 5f)     0.00019       3.68039
   160    C    4  f(C1)  Ryd( 4f)     0.00070       1.75287
   161    C    4  f(C1)  Ryd( 5f)     0.00021       3.79939
   162    C    4  f(S1)  Ryd( 4f)     0.00039       1.77273
   163    C    4  f(S1)  Ryd( 5f)     0.00029       3.81990
   164    C    4  f(C2)  Ryd( 4f)     0.00035       1.40571
   165    C    4  f(C2)  Ryd( 5f)     0.00004       3.76498
   166    C    4  f(S2)  Ryd( 4f)     0.00041       1.40436
   167    C    4  f(S2)  Ryd( 5f)     0.00002       3.73393
   168    C    4  f(C3)  Ryd( 4f)     0.00074       2.98653
   169    C    4  f(C3)  Ryd( 5f)     0.00007       4.57794
   170    C    4  f(S3)  Ryd( 4f)     0.00191       2.35380
   171    C    4  f(S3)  Ryd( 5f)     0.00009       4.90462
 
   172    C    5  S      Cor( 1S)     1.99903     -10.38027
   173    C    5  S      Val( 2S)     0.94697      -0.18224
   174    C    5  S      Ryd( 3S)     0.00227       1.61161
   175    C    5  S      Ryd( 5S)     0.00014       2.76628
   176    C    5  S      Ryd( 4S)     0.00003       2.42094
   177    C    5  px     Val( 2p)     1.12508      -0.09076
   178    C    5  px     Ryd( 4p)     0.00325       1.82414
   179    C    5  px     Ryd( 3p)     0.00014       1.15565
   180    C    5  px     Ryd( 5p)     0.00007       3.11406
   181    C    5  py     Val( 2p)     1.14199      -0.08801
   182    C    5  py     Ryd( 3p)     0.00533       1.52763
   183    C    5  py     Ryd( 4p)     0.00018       1.70010
   184    C    5  py     Ryd( 5p)     0.00006       2.46132
   185    C    5  pz     Val( 2p)     1.06740      -0.13692
   186    C    5  pz     Ryd( 3p)     0.00112       0.82826
   187    C    5  pz     Ryd( 4p)     0.00049       1.44522
   188    C    5  pz     Ryd( 5p)     0.00010       1.73488
   189    C    5  dxy    Ryd( 3d)     0.00174       2.40792
   190    C    5  dxy    Ryd( 5d)     0.00011       3.93482
   191    C    5  dxy    Ryd( 4d)     0.00005       3.53768
   192    C    5  dxz    Ryd( 3d)     0.00018       1.48900
   193    C    5  dxz    Ryd( 5d)     0.00009       2.94652
   194    C    5  dxz    Ryd( 4d)     0.00007       2.10321
   195    C    5  dyz    Ryd( 3d)     0.00063       1.40785
   196    C    5  dyz    Ryd( 5d)     0.00004       3.06101
   197    C    5  dyz    Ryd( 4d)     0.00004       1.72865
   198    C    5  dx2y2  Ryd( 4d)     0.00191       3.41162
   199    C    5  dx2y2  Ryd( 5d)     0.00027       3.91539
   200    C    5  dx2y2  Ryd( 3d)     0.00006       2.96191
   201    C    5  dz2    Ryd( 3d)     0.00107       1.68403
   202    C    5  dz2    Ryd( 5d)     0.00019       4.37661
   203    C    5  dz2    Ryd( 4d)     0.00003       3.87864
   204    C    5  f(0)   Ryd( 4f)     0.00038       1.78584
   205    C    5  f(0)   Ryd( 5f)     0.00013       3.13211
   206    C    5  f(C1)  Ryd( 4f)     0.00090       2.34589
   207    C    5  f(C1)  Ryd( 5f)     0.00010       3.28014
   208    C    5  f(S1)  Ryd( 4f)     0.00070       2.23606
   209    C    5  f(S1)  Ryd( 5f)     0.00013       3.22303
   210    C    5  f(C2)  Ryd( 4f)     0.00006       1.88475
   211    C    5  f(C2)  Ryd( 5f)     0.00003       3.09675
   212    C    5  f(S2)  Ryd( 4f)     0.00018       1.94060
   213    C    5  f(S2)  Ryd( 5f)     0.00013       3.03782
   214    C    5  f(C3)  Ryd( 4f)     0.00042       3.43143
   215    C    5  f(C3)  Ryd( 5f)     0.00022       4.13724
   216    C    5  f(S3)  Ryd( 4f)     0.00068       2.39899
   217    C    5  f(S3)  Ryd( 5f)     0.00024       3.78466
 
   218    C    6  S      Cor( 1S)     1.99910     -10.38502
   219    C    6  S      Val( 2S)     0.93895      -0.18026
   220    C    6  S      Ryd( 3S)     0.00137       1.99259
   221    C    6  S      Ryd( 4S)     0.00020       2.30026
   222    C    6  S      Ryd( 5S)     0.00003       2.56463
   223    C    6  px     Val( 2p)     1.04348      -0.05937
   224    C    6  px     Ryd( 3p)     0.00253       1.83453
   225    C    6  px     Ryd( 4p)     0.00006       2.55935
   226    C    6  py     Val( 2p)     1.14884      -0.07224
   227    C    6  py     Ryd( 3p)     0.00451       1.65164
   228    C    6  py     Ryd( 4p)     0.00006       2.10076
   229    C    6  pz     Val( 2p)     0.91826      -0.11879
   230    C    6  pz     Ryd( 3p)     0.00057       1.02656
   231    C    6  pz     Ryd( 4p)     0.00009       1.59962
   232    C    6  dxy    Ryd( 4d)     0.00201       3.50194
   233    C    6  dxy    Ryd( 5d)     0.00024       3.98535
   234    C    6  dxy    Ryd( 3d)     0.00007       2.61189
   235    C    6  dxz    Ryd( 3d)     0.00053       1.49119
   236    C    6  dxz    Ryd( 5d)     0.00009       3.21613
   237    C    6  dxz    Ryd( 4d)     0.00008       1.84885
   238    C    6  dyz    Ryd( 3d)     0.00104       1.23803
   239    C    6  dyz    Ryd( 5d)     0.00005       3.22330
   240    C    6  dyz    Ryd( 4d)     0.00005       1.55388
   241    C    6  dx2y2  Ryd( 4d)     0.00195       3.22964
   242    C    6  dx2y2  Ryd( 5d)     0.00028       4.28011
   243    C    6  dx2y2  Ryd( 3d)     0.00007       2.50798
   244    C    6  dz2    Ryd( 3d)     0.00112       1.77592
   245    C    6  dz2    Ryd( 4d)     0.00012       3.83374
   246    C    6  dz2    Ryd( 5d)     0.00009       3.83995
   247    C    6  f(0)   Ryd( 4f)     0.00033       1.57691
   248    C    6  f(0)   Ryd( 5f)     0.00005       3.34406
   249    C    6  f(C1)  Ryd( 4f)     0.00068       2.11033
   250    C    6  f(C1)  Ryd( 5f)     0.00015       3.68899
   251    C    6  f(S1)  Ryd( 4f)     0.00115       1.91571
   252    C    6  f(S1)  Ryd( 5f)     0.00007       3.51060
   253    C    6  f(C2)  Ryd( 4f)     0.00020       1.60673
   254    C    6  f(C2)  Ryd( 5f)     0.00002       3.54237
   255    C    6  f(S2)  Ryd( 4f)     0.00026       1.58262
   256    C    6  f(S2)  Ryd( 5f)     0.00004       3.33365
   257    C    6  f(C3)  Ryd( 4f)     0.00082       2.74811
   258    C    6  f(C3)  Ryd( 5f)     0.00014       4.08411
   259    C    6  f(S3)  Ryd( 4f)     0.00128       2.14024
   260    C    6  f(S3)  Ryd( 5f)     0.00018       4.15372
 
   261    O    7  S      Cor( 1S)     1.99975     -19.47046
   262    O    7  S      Val( 2S)     1.58845      -0.96358
   263    O    7  S      Ryd( 4S)     0.00206       2.47488
   264    O    7  S      Ryd( 3S)     0.00021       1.71294
   265    O    7  S      Ryd( 5S)     0.00001      10.92411
   266    O    7  px     Val( 2p)     1.37233      -0.34032
   267    O    7  px     Ryd( 4p)     0.00178       1.76063
   268    O    7  px     Ryd( 3p)     0.00017       1.29255
   269    O    7  px     Ryd( 5p)     0.00003       5.10142
   270    O    7  py     Val( 2p)     1.68094      -0.39304
   271    O    7  py     Ryd( 3p)     0.00246       1.26018
   272    O    7  py     Ryd( 4p)     0.00015       1.36144
   273    O    7  py     Ryd( 5p)     0.00008       4.47103
   274    O    7  pz     Val( 2p)     1.85081      -0.40038
   275    O    7  pz     Ryd( 3p)     0.00354       0.96472
   276    O    7  pz     Ryd( 4p)     0.00005       1.18691
   277    O    7  pz     Ryd( 5p)     0.00001       3.73897
   278    O    7  dxy    Ryd( 3d)     0.00345       2.29653
   279    O    7  dxy    Ryd( 4d)     0.00016       3.06498
   280    O    7  dxy    Ryd( 5d)     0.00005       6.63419
   281    O    7  dxz    Ryd( 3d)     0.00035       1.52638
   282    O    7  dxz    Ryd( 4d)     0.00026       2.41332
   283    O    7  dxz    Ryd( 5d)     0.00005       6.28098
   284    O    7  dyz    Ryd( 3d)     0.00298       1.33809
   285    O    7  dyz    Ryd( 4d)     0.00008       2.34287
   286    O    7  dyz    Ryd( 5d)     0.00002       6.08257
   287    O    7  dx2y2  Ryd( 3d)     0.00344       2.14487
   288    O    7  dx2y2  Ryd( 4d)     0.00023       3.21346
   289    O    7  dx2y2  Ryd( 5d)     0.00005       6.52014
   290    O    7  dz2    Ryd( 3d)     0.00269       1.69671
   291    O    7  dz2    Ryd( 4d)     0.00012       2.64737
   292    O    7  dz2    Ryd( 5d)     0.00002       6.46874
   293    O    7  f(0)   Ryd( 4f)     0.00048       2.79881
   294    O    7  f(0)   Ryd( 5f)     0.00002       6.16332
   295    O    7  f(C1)  Ryd( 4f)     0.00014       4.30747
   296    O    7  f(C1)  Ryd( 5f)     0.00004       6.53091
   297    O    7  f(S1)  Ryd( 4f)     0.00012       3.40136
   298    O    7  f(S1)  Ryd( 5f)     0.00002       6.30520
   299    O    7  f(C2)  Ryd( 4f)     0.00004       2.89674
   300    O    7  f(C2)  Ryd( 5f)     0.00001       6.33336
   301    O    7  f(S2)  Ryd( 4f)     0.00008       2.92108
   302    O    7  f(S2)  Ryd( 5f)     0.00002       6.40949
   303    O    7  f(C3)  Ryd( 4f)     0.00010       4.79299
   304    O    7  f(C3)  Ryd( 5f)     0.00006       6.73570
   305    O    7  f(S3)  Ryd( 4f)     0.00006       3.98985
   306    O    7  f(S3)  Ryd( 5f)     0.00009       6.67120
 
   307    C    8  S      Cor( 1S)     1.99943     -10.48651
   308    C    8  S      Val( 2S)     1.09358      -0.33270
   309    C    8  S      Ryd( 3S)     0.00178       1.03446
   310    C    8  S      Ryd( 5S)     0.00018       4.09384
   311    C    8  S      Ryd( 4S)     0.00006       3.13108
   312    C    8  px     Val( 2p)     1.01264      -0.12129
   313    C    8  px     Ryd( 4p)     0.00191       1.19178
   314    C    8  px     Ryd( 5p)     0.00021       2.22680
   315    C    8  px     Ryd( 3p)     0.00003       0.93535
   316    C    8  py     Val( 2p)     0.92304      -0.10315
   317    C    8  py     Ryd( 4p)     0.00356       0.95071
   318    C    8  py     Ryd( 5p)     0.00014       2.19414
   319    C    8  py     Ryd( 3p)     0.00008       0.61518
   320    C    8  pz     Val( 2p)     1.18105      -0.14090
   321    C    8  pz     Ryd( 4p)     0.00030       1.04896
   322    C    8  pz     Ryd( 5p)     0.00020       1.95851
   323    C    8  pz     Ryd( 3p)     0.00001       0.58526
   324    C    8  dxy    Ryd( 5d)     0.00058       3.91545
   325    C    8  dxy    Ryd( 3d)     0.00015       1.21487
   326    C    8  dxy    Ryd( 4d)     0.00002       3.34890
   327    C    8  dxz    Ryd( 4d)     0.00026       3.11689
   328    C    8  dxz    Ryd( 3d)     0.00010       1.21908
   329    C    8  dxz    Ryd( 5d)     0.00005       3.13895
   330    C    8  dyz    Ryd( 5d)     0.00157       3.40885
   331    C    8  dyz    Ryd( 3d)     0.00025       1.22775
   332    C    8  dyz    Ryd( 4d)     0.00000       3.14481
   333    C    8  dx2y2  Ryd( 4d)     0.00072       3.25554
   334    C    8  dx2y2  Ryd( 3d)     0.00002       1.27510
   335    C    8  dx2y2  Ryd( 5d)     0.00003       3.56990
   336    C    8  dz2    Ryd( 5d)     0.00062       3.60248
   337    C    8  dz2    Ryd( 3d)     0.00013       1.26820
   338    C    8  dz2    Ryd( 4d)     0.00001       3.36969
   339    C    8  f(0)   Ryd( 4f)     0.00003       2.20507
   340    C    8  f(0)   Ryd( 5f)     0.00001       3.52789
   341    C    8  f(C1)  Ryd( 4f)     0.00011       2.84091
   342    C    8  f(C1)  Ryd( 5f)     0.00001       3.67951
   343    C    8  f(S1)  Ryd( 4f)     0.00016       2.84424
   344    C    8  f(S1)  Ryd( 5f)     0.00013       3.78748
   345    C    8  f(C2)  Ryd( 4f)     0.00008       2.59799
   346    C    8  f(C2)  Ryd( 5f)     0.00000       3.54890
   347    C    8  f(S2)  Ryd( 4f)     0.00011       2.28265
   348    C    8  f(S2)  Ryd( 5f)     0.00003       3.47144
   349    C    8  f(C3)  Ryd( 4f)     0.00004       2.70137
   350    C    8  f(C3)  Ryd( 5f)     0.00006       3.67600
   351    C    8  f(S3)  Ryd( 4f)     0.00014       2.69313
   352    C    8  f(S3)  Ryd( 5f)     0.00006       3.59517
 
   353    C    9  S      Cor( 1S)     1.99906     -10.53084
   354    C    9  S      Val( 2S)     0.77990      -0.10759
   355    C    9  S      Ryd( 3S)     0.00365       2.04683
   356    C    9  S      Ryd( 5S)     0.00021       2.62624
   357    C    9  S      Ryd( 4S)     0.00011       2.19601
   358    C    9  px     Val( 2p)     0.90608      -0.04338
   359    C    9  px     Ryd( 4p)     0.00516       1.57737
   360    C    9  px     Ryd( 3p)     0.00023       1.20995
   361    C    9  px     Ryd( 5p)     0.00003       1.78792
   362    C    9  py     Val( 2p)     0.73233      -0.00991
   363    C    9  py     Ryd( 4p)     0.01378       1.57898
   364    C    9  py     Ryd( 3p)     0.00017       1.06914
   365    C    9  py     Ryd( 5p)     0.00004       2.20394
   366    C    9  pz     Val( 2p)     0.75443      -0.11596
   367    C    9  pz     Ryd( 4p)     0.00055       1.13603
   368    C    9  pz     Ryd( 3p)     0.00014       0.68593
   369    C    9  pz     Ryd( 5p)     0.00009       1.34272
   370    C    9  dxy    Ryd( 3d)     0.00101       2.87702
   371    C    9  dxy    Ryd( 5d)     0.00036       3.17896
   372    C    9  dxy    Ryd( 4d)     0.00004       3.07283
   373    C    9  dxz    Ryd( 3d)     0.00180       1.96375
   374    C    9  dxz    Ryd( 4d)     0.00009       2.27903
   375    C    9  dxz    Ryd( 5d)     0.00010       2.29502
   376    C    9  dyz    Ryd( 3d)     0.00217       2.14647
   377    C    9  dyz    Ryd( 4d)     0.00003       2.38135
   378    C    9  dyz    Ryd( 5d)     0.00005       2.63175
   379    C    9  dx2y2  Ryd( 3d)     0.00227       2.73668
   380    C    9  dx2y2  Ryd( 4d)     0.00012       3.05372
   381    C    9  dx2y2  Ryd( 5d)     0.00009       3.74918
   382    C    9  dz2    Ryd( 3d)     0.00055       2.57859
   383    C    9  dz2    Ryd( 5d)     0.00059       3.11437
   384    C    9  dz2    Ryd( 4d)     0.00011       2.97386
   385    C    9  f(0)   Ryd( 5f)     0.00014       3.55380
   386    C    9  f(0)   Ryd( 4f)     0.00002       2.14268
   387    C    9  f(C1)  Ryd( 5f)     0.00011       3.83855
   388    C    9  f(C1)  Ryd( 4f)     0.00003       3.00942
   389    C    9  f(S1)  Ryd( 5f)     0.00005       3.73681
   390    C    9  f(S1)  Ryd( 4f)     0.00004       3.16086
   391    C    9  f(C2)  Ryd( 5f)     0.00000       3.53266
   392    C    9  f(C2)  Ryd( 4f)     0.00010       2.44419
   393    C    9  f(S2)  Ryd( 5f)     0.00002       3.71869
   394    C    9  f(S2)  Ryd( 4f)     0.00004       2.83424
   395    C    9  f(C3)  Ryd( 4f)     0.00013       4.37822
   396    C    9  f(C3)  Ryd( 5f)     0.00004       6.92729
   397    C    9  f(S3)  Ryd( 5f)     0.00010       4.59483
   398    C    9  f(S3)  Ryd( 4f)     0.00002       4.24657
 
   399    O   10  S      Cor( 1S)     1.99979     -19.32028
   400    O   10  S      Val( 2S)     1.70800      -0.99077
   401    O   10  S      Ryd( 4S)     0.00078       2.83551
   402    O   10  S      Ryd( 3S)     0.00015       1.51089
   403    O   10  S      Ryd( 5S)     0.00001       8.85006
   404    O   10  px     Val( 2p)     1.81372      -0.33116
   405    O   10  px     Ryd( 4p)     0.00142       1.33834
   406    O   10  px     Ryd( 3p)     0.00013       0.73091
   407    O   10  px     Ryd( 5p)     0.00004       4.69820
   408    O   10  py     Val( 2p)     1.60080      -0.32516
   409    O   10  py     Ryd( 4p)     0.00105       1.49066
   410    O   10  py     Ryd( 3p)     0.00007       0.64424
   411    O   10  py     Ryd( 5p)     0.00006       5.36747
   412    O   10  pz     Val( 2p)     1.46594      -0.28148
   413    O   10  pz     Ryd( 4p)     0.00054       1.05270
   414    O   10  pz     Ryd( 3p)     0.00004       0.60934
   415    O   10  pz     Ryd( 5p)     0.00001       4.19194
   416    O   10  dxy    Ryd( 3d)     0.00681       2.00349
   417    O   10  dxy    Ryd( 4d)     0.00008       3.07178
   418    O   10  dxy    Ryd( 5d)     0.00004       6.67700
   419    O   10  dxz    Ryd( 3d)     0.00126       1.48059
   420    O   10  dxz    Ryd( 4d)     0.00001       1.59457
   421    O   10  dxz    Ryd( 5d)     0.00001       6.53517
   422    O   10  dyz    Ryd( 3d)     0.00535       1.57658
   423    O   10  dyz    Ryd( 4d)     0.00004       1.66217
   424    O   10  dyz    Ryd( 5d)     0.00003       6.50002
   425    O   10  dx2y2  Ryd( 3d)     0.00635       1.90948
   426    O   10  dx2y2  Ryd( 4d)     0.00010       2.43222
   427    O   10  dx2y2  Ryd( 5d)     0.00003       6.65391
   428    O   10  dz2    Ryd( 3d)     0.00273       1.66038
   429    O   10  dz2    Ryd( 4d)     0.00008       2.48949
   430    O   10  dz2    Ryd( 5d)     0.00000       6.61166
   431    O   10  f(0)   Ryd( 4f)     0.00011       3.16427
   432    O   10  f(0)   Ryd( 5f)     0.00001       5.48297
   433    O   10  f(C1)  Ryd( 4f)     0.00006       3.26234
   434    O   10  f(C1)  Ryd( 5f)     0.00002       5.55786
   435    O   10  f(S1)  Ryd( 4f)     0.00012       3.70299
   436    O   10  f(S1)  Ryd( 5f)     0.00001       5.79931
   437    O   10  f(C2)  Ryd( 4f)     0.00015       3.15197
   438    O   10  f(C2)  Ryd( 5f)     0.00002       5.66279
   439    O   10  f(S2)  Ryd( 4f)     0.00016       3.18529
   440    O   10  f(S2)  Ryd( 5f)     0.00000       5.62548
   441    O   10  f(C3)  Ryd( 4f)     0.00039       3.99669
   442    O   10  f(C3)  Ryd( 5f)     0.00001       6.07628
   443    O   10  f(S3)  Ryd( 4f)     0.00035       3.70486
   444    O   10  f(S3)  Ryd( 5f)     0.00003       5.93162
 
   445    O   11  S      Cor( 1S)     1.99978     -19.45573
   446    O   11  S      Val( 2S)     1.67196      -1.02481
   447    O   11  S      Ryd( 3S)     0.00048       1.71880
   448    O   11  S      Ryd( 4S)     0.00020       2.38178
   449    O   11  S      Ryd( 5S)     0.00001       9.57806
   450    O   11  px     Val( 2p)     1.45691      -0.35208
   451    O   11  px     Ryd( 3p)     0.00069       1.18905
   452    O   11  px     Ryd( 4p)     0.00013       1.27023
   453    O   11  px     Ryd( 5p)     0.00002       4.84672
   454    O   11  py     Val( 2p)     1.71092      -0.39889
   455    O   11  py     Ryd( 4p)     0.00082       1.08877
   456    O   11  py     Ryd( 3p)     0.00008       1.01537
   457    O   11  py     Ryd( 5p)     0.00007       4.51160
   458    O   11  pz     Val( 2p)     1.84981      -0.40762
   459    O   11  pz     Ryd( 4p)     0.00100       0.89557
   460    O   11  pz     Ryd( 3p)     0.00000       0.81647
   461    O   11  pz     Ryd( 5p)     0.00000       3.91029
   462    O   11  dxy    Ryd( 3d)     0.00596       1.98210
   463    O   11  dxy    Ryd( 4d)     0.00017       2.61625
   464    O   11  dxy    Ryd( 5d)     0.00003       6.83306
   465    O   11  dxz    Ryd( 3d)     0.00030       1.24162
   466    O   11  dxz    Ryd( 4d)     0.00009       1.89269
   467    O   11  dxz    Ryd( 5d)     0.00001       6.50261
   468    O   11  dyz    Ryd( 3d)     0.00427       1.33419
   469    O   11  dyz    Ryd( 4d)     0.00003       1.66309
   470    O   11  dyz    Ryd( 5d)     0.00003       6.49773
   471    O   11  dx2y2  Ryd( 3d)     0.00357       1.77011
   472    O   11  dx2y2  Ryd( 4d)     0.00008       2.15317
   473    O   11  dx2y2  Ryd( 5d)     0.00006       6.86971
   474    O   11  dz2    Ryd( 3d)     0.00286       1.55094
   475    O   11  dz2    Ryd( 4d)     0.00015       2.30328
   476    O   11  dz2    Ryd( 5d)     0.00001       6.73392
   477    O   11  f(0)   Ryd( 4f)     0.00048       2.84760
   478    O   11  f(0)   Ryd( 5f)     0.00001       5.86261
   479    O   11  f(C1)  Ryd( 4f)     0.00023       3.49598
   480    O   11  f(C1)  Ryd( 5f)     0.00002       6.17763
   481    O   11  f(S1)  Ryd( 4f)     0.00014       3.31227
   482    O   11  f(S1)  Ryd( 5f)     0.00001       6.06137
   483    O   11  f(C2)  Ryd( 4f)     0.00007       2.88443
   484    O   11  f(C2)  Ryd( 5f)     0.00001       6.03414
   485    O   11  f(S2)  Ryd( 4f)     0.00004       2.94383
   486    O   11  f(S2)  Ryd( 5f)     0.00001       5.90265
   487    O   11  f(C3)  Ryd( 4f)     0.00008       4.30556
   488    O   11  f(C3)  Ryd( 5f)     0.00005       6.48833
   489    O   11  f(S3)  Ryd( 4f)     0.00011       3.97569
   490    O   11  f(S3)  Ryd( 5f)     0.00002       6.42949
 
   491    H   12  S      Val( 1S)     0.76908       0.05595
   492    H   12  S      Ryd( 4S)     0.00059       2.01771
   493    H   12  S      Ryd( 2S)     0.00015       0.77248
   494    H   12  S      Ryd( 3S)     0.00005       1.83342
   495    H   12  px     Ryd( 2p)     0.00085       1.01343
   496    H   12  px     Ryd( 4p)     0.00012       4.19642
   497    H   12  px     Ryd( 3p)     0.00012       3.88361
   498    H   12  py     Ryd( 2p)     0.00080       0.96268
   499    H   12  py     Ryd( 4p)     0.00011       4.63825
   500    H   12  py     Ryd( 3p)     0.00008       3.91966
   501    H   12  pz     Ryd( 2p)     0.00022       0.71636
   502    H   12  pz     Ryd( 4p)     0.00005       3.77097
   503    H   12  pz     Ryd( 3p)     0.00006       2.21225
   504    H   12  dxy    Ryd( 3d)     0.00009       2.59565
   505    H   12  dxy    Ryd( 4d)     0.00005       4.43721
   506    H   12  dxz    Ryd( 3d)     0.00006       1.49724
   507    H   12  dxz    Ryd( 4d)     0.00001       3.93866
   508    H   12  dyz    Ryd( 3d)     0.00003       1.58672
   509    H   12  dyz    Ryd( 4d)     0.00001       4.05573
   510    H   12  dx2y2  Ryd( 3d)     0.00003       2.12440
   511    H   12  dx2y2  Ryd( 4d)     0.00002       4.60601
   512    H   12  dz2    Ryd( 3d)     0.00005       2.32586
   513    H   12  dz2    Ryd( 4d)     0.00002       4.13455
 
   514    H   13  S      Val( 1S)     0.77597       0.03731
   515    H   13  S      Ryd( 4S)     0.00042       2.06343
   516    H   13  S      Ryd( 2S)     0.00011       0.49755
   517    H   13  S      Ryd( 3S)     0.00003       1.85471
   518    H   13  px     Ryd( 2p)     0.00143       0.89143
   519    H   13  px     Ryd( 4p)     0.00007       4.22984
   520    H   13  px     Ryd( 3p)     0.00005       3.14427
   521    H   13  py     Ryd( 2p)     0.00093       1.00332
   522    H   13  py     Ryd( 4p)     0.00015       4.51282
   523    H   13  py     Ryd( 3p)     0.00003       4.10219
   524    H   13  pz     Ryd( 2p)     0.00034       0.68068
   525    H   13  pz     Ryd( 4p)     0.00002       3.91331
   526    H   13  pz     Ryd( 3p)     0.00006       2.07294
   527    H   13  dxy    Ryd( 3d)     0.00008       2.04139
   528    H   13  dxy    Ryd( 4d)     0.00004       4.62282
   529    H   13  dxz    Ryd( 3d)     0.00001       1.43946
   530    H   13  dxz    Ryd( 4d)     0.00000       3.83908
   531    H   13  dyz    Ryd( 3d)     0.00001       1.61772
   532    H   13  dyz    Ryd( 4d)     0.00003       4.09298
   533    H   13  dx2y2  Ryd( 3d)     0.00007       2.11257
   534    H   13  dx2y2  Ryd( 4d)     0.00003       4.64444
   535    H   13  dz2    Ryd( 3d)     0.00003       2.09145
   536    H   13  dz2    Ryd( 4d)     0.00001       4.30499
 
   537    H   14  S      Val( 1S)     0.77960       0.02952
   538    H   14  S      Ryd( 3S)     0.00035       1.57713
   539    H   14  S      Ryd( 2S)     0.00013       1.05659
   540    H   14  S      Ryd( 4S)     0.00003       2.15296
[...]
 05982856,-0.04048459,0.00024935,-0.02500247,0.09405329,0.00134867,-0.3
 0679678,-0.06697652,-0.00322440,0.71055060,0.00024132,-0.04074806,-0.0
 0991112,-0.00015799,0.03252222,0.03818893,-0.00010739,0.00889859,-0.12
 401485,0.00049724,0.00631734,0.69375022,0.00781986,0.00030206,-0.00013
 149,-0.00236514,-0.00000882,-0.00010797,0.00772899,0.00006567,0.000203
 80,-0.06932937,0.00072264,0.00054383,0.12585953,0.00024507,-0.02885199
 ,0.02525559,0.00000061,-0.00137962,0.00639761,0.00010959,-0.01531276,-
 0.02954036,0.00064790,-0.19734773,-0.12077708,-0.00383531,0.75993856,-
 0.00047596,0.08238854,0.02834646,-0.00005340,-0.00286065,-0.07235735,0
 .00046720,-0.07330824,0.03410297,0.00008934,-0.04539160,-0.24961057,0.
 00064490,-0.01395888,0.67558122,-0.06683685,0.00155402,-0.00017493,0.0
 0688520,0.00017862,0.00053455,-0.00263019,0.00035645,-0.00021008,0.000
 78327,-0.00051455,-0.00027796,-0.06057383,0.00093152,-0.00061253,0.147
 14701,0.00161887,-0.33340511,0.01990026,0.00012519,-0.02809379,-0.0848
 3445,0.00036151,-0.05751578,0.03253928,-0.00045344,0.08206753,0.035149
 00,0.00085912,-0.19209927,0.06308786,-0.00328816,0.69769396,0.00021574
 ,-0.04476160,-0.12259085,0.00020847,-0.03048217,0.03168952,-0.00017148
 ,0.02612331,-0.01692901,0.00008779,-0.02570062,-0.06454874,-0.00105958
 ,0.13717242,-0.29041429,0.00048114,0.02108434,0.74715180,-0.00055013,0
 .00000170,-0.00007539,0.00454315,0.00004564,0.00008350,0.00766466,0.00
 032315,-0.00038081,-0.04833438,0.00063662,-0.00079998,0.01121634,-0.00
 000426,-0.00004472,0.00658017,0.00006259,0.00001213,0.07244339,0.00000
 623,0.00020956,0.01040020,0.00003794,-0.00410008,-0.01302602,0.0003539
 8,-0.04079177,0.06046546,0.00068315,-0.14640621,0.09356847,-0.00002813
 ,0.01513672,-0.00350527,0.00006821,-0.00533593,-0.00271612,-0.00272351
 ,0.51572403,-0.00005660,0.00751007,-0.01136524,0.00003352,-0.00496850,
 0.00651561,-0.00018780,0.02832227,-0.00981566,-0.00058321,0.05622135,-
 0.27649103,-0.00019751,0.02110172,-0.05539772,0.00005989,-0.01051011,0
 .00310360,0.00107369,-0.11791128,0.41855959,0.00015404,-0.00001817,0.0
 0002280,0.00158896,0.00001946,-0.00000781,0.00325409,-0.00001493,-0.00
 000162,-0.00464082,0.00022287,-0.00014761,-0.00174831,-0.00004417,0.00
 004378,0.00054485,0.00002850,-0.00000439,-0.06116620,0.00104042,-0.000
 05544,0.57955555,-0.00002329,0.00336683,-0.00374998,0.00001883,-0.0013
 1588,0.00088970,-0.00001733,0.00570217,-0.00128906,0.00019833,-0.03411
 314,0.02476369,-0.00005596,0.00631480,-0.00784060,0.00002998,-0.004303
 09,0.00080876,0.00108095,-0.24548052,0.00458056,0.00055854,0.48134388,
 -0.00000117,0.00023654,0.00043051,-0.00001148,0.00153317,-0.00020903,-
 0.00000317,-0.00081115,-0.00448192,-0.00026329,0.04466779,-0.00779421,
 -0.00001981,0.00318551,-0.00339297,-0.00000381,0.00068954,0.00063870,0
 .00012869,-0.02738788,-0.08853365,0.00010408,-0.00780738,0.63415978,-0
 .08147154,0.00035601,-0.00045058,-0.00192815,-0.00012516,-0.00002853,0
 .00743404,0.00001549,0.00005059,-0.00049786,0.00003892,-0.00003582,0.0
 0762938,0.00008465,0.00002619,0.00013799,0.00015117,-0.00019894,-0.000
 70328,-0.00004214,0.00005535,-0.00035851,0.00002016,-0.00000185,0.2193
 3442,0.00035438,-0.13183843,0.05681442,-0.00013012,0.01992918,-0.00087
 076,0.00001683,0.00323434,-0.00928160,0.00004023,-0.00647834,0.0037268
 7,0.00008626,-0.00733666,-0.00357142,0.00015243,-0.01975952,0.03291537
 ,-0.00004088,0.00483563,-0.00703019,0.00001473,-0.00279469,0.00030955,
 -0.00254229,0.66725507,-0.00034642,0.04337910,-0.17840029,-0.00008800,
 0.00933994,-0.03318197,0.00005071,-0.00979922,0.00058767,-0.00002491,0
 .00205305,-0.01232280,0.00002799,-0.00410457,0.01199624,-0.00016687,0.
 02715609,-0.00138476,0.00006192,-0.00819445,0.01139466,-0.00002907,0.0
 0496326,-0.00020941,0.00014439,0.13554041,0.95848609,0.02138858,-0.000
 00759,-0.00012159,0.00337995,0.00004926,-0.00001036,-0.00160147,-0.000
 01250,-0.00001308,0.00006903,-0.00000857,0.00000063,-0.00074949,-0.000
 01736,0.00000312,0.00022548,0.00002458,-0.00001222,0.00010165,0.000005
 85,-0.00000883,0.00003327,-0.00000320,0.00000048,-0.08124247,0.0005492
 3,0.00066999,0.03456769,0.00001599,0.01953122,0.00431790,0.00003849,-0
 .00279492,0.00135757,-0.00001396,0.00098596,0.00160815,-0.00000313,0.0
 0074459,0.00092931,-0.00001919,0.00231704,-0.00113972,0.00004136,-0.00
 611232,0.00210373,0.00000042,0.00007795,0.00030963,0.00000002,0.000017
 12,-0.00006054,0.00054042,-0.22387693,-0.23751694,-0.00100792,0.268418
 07,-0.00004143,-0.01102180,-0.06302639,-0.00005383,0.00858576,0.002104
 03,-0.00002124,0.00337674,-0.00390723,0.00002880,-0.00393220,0.0048591
 5,-0.00000469,0.00036215,-0.00332628,0.00006216,-0.01014267,0.00019137
 ,-0.00003475,0.00476167,-0.00577310,0.00001609,-0.00271705,0.00011714,
 0.00064027,-0.23077926,-0.63531450,-0.00094452,0.30667512,0.71670864,0
 .01206705,0.00034580,-0.00007300,0.00048996,0.00003077,0.00001458,-0.0
 0066002,0.00000685,-0.00000927,0.00005244,-0.00000490,0.00002839,-0.00
 052499,0.00000252,-0.00002001,0.00167480,-0.00001491,-0.00002964,0.000
 03335,0.00001777,-0.00002866,0.00003975,-0.00001082,0.00000090,-0.0660
 0220,0.00129485,0.00001535,0.02969421,0.00051261,0.00034600,0.03766547
 ,0.00032309,-0.03776732,0.01104870,0.00002394,-0.00418964,-0.00318454,
 0.00000742,-0.00163752,0.00172605,-0.00000950,0.00089357,-0.00426001,0
 .00000245,-0.00045014,0.00317952,-0.00000944,0.00391189,0.00338483,0.0
 0002045,-0.00261703,0.00435927,-0.00000968,0.00165198,-0.00015279,0.00
 124914,-0.27015343,-0.01432268,0.00053089,-0.06991311,-0.06406015,-0.0
 0290103,0.48376316,-0.00025127,0.03903222,0.00292827,-0.00001349,0.001
 34951,-0.00403711,-0.00000207,0.00060754,0.00113066,-0.00000122,0.0005
 2221,0.00193451,-0.00001501,0.00245477,-0.00114294,-0.00000083,-0.0011
 2513,-0.00576485,-0.00000887,0.00123545,-0.00147384,0.00000423,-0.0007
 3118,-0.00001648,-0.00016866,0.01492986,-0.12871452,0.00042133,-0.0758
 0683,-0.00588562,0.00139632,-0.11560772,0.59278436,0.00416789,0.000062
 32,-0.00000837,-0.04196985,0.00183059,0.00003099,0.00528997,0.00011964
 ,0.00001161,0.00864844,0.00004789,-0.00002458,-0.00093524,-0.00000924,
 -0.00000207,0.00576382,0.00002823,0.00000665,-0.00005177,0.00000660,-0
 .00000044,-0.00034537,-0.00000305,-0.00000075,-0.00375882,-0.00001652,
 0.00000545,0.00054961,0.00000193,0.,0.00021038,0.00000521,-0.00002057,
 0.02774210,0.00009171,-0.01084243,0.00120248,0.00182748,-0.34748050,-0
 .00771691,0.00008956,-0.00995578,-0.00206270,0.00004818,0.00094982,0.0
 0192259,-0.00000900,0.00063287,0.00037848,0.00002756,0.00070434,-0.002
 96349,0.00000499,-0.00088219,0.00010141,-0.00000290,0.00017818,0.00013
 302,-0.00001231,-0.00165133,0.00009718,0.00000064,0.00042061,-0.000081
 71,0.00000579,-0.00021416,0.00291009,-0.00203677,0.36760657,0.00016141
 ,-0.02673574,0.00521339,0.00001793,-0.00586270,-0.05916736,-0.00016438
 ,0.02733708,0.00501059,-0.00002538,0.00207580,-0.00402764,-0.00000239,
 0.00036077,-0.00119975,0.00000501,-0.00267848,-0.00519924,-0.00000939,
 0.00162805,0.00017118,0.00000018,-0.00005770,-0.00034340,0.00002469,-0
 .00320979,0.00108216,-0.00000631,0.00107207,0.00056983,-0.00001661,0.0
 0220053,-0.00238702,-0.00000196,0.00560380,0.05888140,0.00771927,0.000
 05657,-0.00003033,0.00297471,-0.00007127,-0.00011613,-0.03648573,0.000
 39191,0.00046255,0.00540526,0.00009176,0.00017522,0.00484196,0.0000640
 6,-0.00000867,-0.00073241,0.00000325,-0.00000606,-0.00327470,-0.000035
 54,0.00000481,-0.00060426,-0.00000277,-0.00000069,0.00084604,-0.000002
 08,-0.00000364,-0.00043776,-0.00000133,-0.00000311,-0.00002231,0.00000
 091,0.00000032,-0.00471786,-0.00003287,0.00000962,0.02522388,0.0000552
 4,-0.00094701,0.00339855,-0.00004144,0.01255586,0.01585373,0.00039404,
 -0.12197249,-0.11850994,0.00005996,-0.00958587,-0.02983414,0.00006505,
 -0.00583988,0.00078541,0.00000405,-0.00119959,0.00120445,-0.00003627,0
 .00273634,-0.00020468,-0.00000241,-0.00018629,0.00027307,-0.00000024,0
 .00091968,0.00046523,-0.00000081,-0.00018271,0.00047800,0.00000052,-0.
 00010726,-0.00006047,-0.00003358,0.00077097,-0.00064864,-0.00045915,0.
 12318290,-0.00003415,0.00405483,-0.00212151,0.00006097,-0.01359967,-0.
 01755981,0.00047453,-0.12054236,-0.28250270,-0.00001327,0.00155473,0.0
 0144691,-0.00000456,0.00007342,0.00096515,-0.00000224,0.00056742,0.000
 35517,0.00000207,0.00029936,0.00043496,0.00000135,-0.00009201,0.000222
 49,0.00000797,-0.00140779,0.00007528,-0.00000203,0.00023000,-0.0007801
 0,-0.00000228,0.00034554,-0.00007256,0.00000510,0.00011129,0.00094184,
 -0.00049324,0.12824041,0.29858871,0.00753534,0.00004132,-0.00003060,-0
 .00078021,-0.00000887,0.00000100,0.00557311,0.00003014,0.00000605,0.00
 360423,0.00005874,-0.00000533,-0.03378294,0.00188151,0.00006096,0.0022
 1874,0.00011415,0.00001400,-0.00272588,-0.00001062,0.00000070,-0.00041
 113,0.00000327,-0.00001782,0.00078085,0.00000741,0.00000589,-0.0000119
 6,-0.00000041,-0.00000248,-0.00021906,0.00000094,-0.00000225,-0.000846
 78,-0.00000459,0.00000093,-0.00007325,0.00000131,-0.00000133,0.0242807
 7,0.00004202,0.00107613,0.00308929,-0.00000937,0.00071158,-0.00030515,
 0.00002965,0.00020033,-0.00277860,0.00008849,-0.01087483,0.00147053,0.
 00188049,-0.34789078,-0.01447993,0.00008384,-0.01200841,-0.00180234,-0
 .00001252,-0.00056598,0.00061186,0.00000526,-0.00097660,0.00260198,0.0
 0000524,-0.00025727,-0.00089535,0.00000024,0.00002542,0.00034540,0.000
 00097,-0.00030801,0.00032401,-0.00000460,-0.00008039,0.00000463,0.0000
 0305,-0.00053712,0.00024711,-0.00207667,0.37019682,-0.00002711,0.00259
 983,-0.00413834,-0.00000160,0.00011124,-0.00173447,0.00000255,-0.00220
 538,-0.00486664,0.00016754,-0.02730616,0.00665808,0.00005417,-0.013251
 04,-0.05870025,-0.00016655,0.02814104,0.00530919,-0.00000968,0.0023453
 0,0.00128298,0.00000098,-0.00052368,-0.00278046,-0.00000555,0.00103607
 ,0.00110553,0.00000064,-0.00018072,-0.00029056,-0.00000317,0.00044092,
 -0.00052667,0.00000080,0.00002926,0.00008641,0.00000874,-0.00143932,0.
 00008510,-0.00001926,0.00912568,0.05995311,0.00532972,0.00008711,0.000
 16923,0.00590872,0.00007326,-0.00001070,-0.00106838,-0.00000214,-0.000
 00416,0.00795415,0.00005995,-0.00003018,0.00499417,-0.00005332,-0.0001
 1846,-0.04197273,0.00036747,0.00047466,-0.00054994,-0.00000613,-0.0000
 0759,-0.00001657,-0.00000234,0.00000057,-0.00418382,-0.00001424,0.0000
 2771,-0.00021266,-0.00001037,-0.00001247,0.00010470,-0.00000830,-0.000
 00392,0.00041411,0.00000580,0.00000903,-0.00070189,-0.00000465,0.00000
 110,-0.00438068,-0.00003143,0.00000883,0.02810762,0.00005765,-0.009046
 29,-0.02853762,0.00007362,-0.00619377,0.00099062,-0.00000180,-0.000612
 49,0.00092489,0.00005976,-0.00141428,0.00337216,-0.00002501,0.01179969
 ,0.01609044,0.00037092,-0.12363665,-0.11907212,-0.00000458,0.00041859,
 0.00116004,-0.00000189,0.00029267,-0.00008188,-0.00001857,-0.00178357,
 -0.00384112,-0.00000975,0.00179216,0.00183021,-0.00000705,0.00133075,0
 .00060456,0.00000412,-0.00052751,-0.00153279,-0.00000469,0.00006565,-0
 .00007389,-0.00003195,0.00083442,-0.00057328,-0.00046420,0.12695836,0.
 00000294,-0.00094509,0.00302089,-0.00000815,0.00059725,0.00145066,-0.0
 0000459,0.00094910,0.00006244,-0.00002981,0.00328930,-0.00193239,0.000
 05467,-0.01262280,-0.01623875,0.00048657,-0.12096303,-0.28074552,0.000
 00174,-0.00042138,-0.00131951,0.00000285,-0.00047585,0.00005346,-0.000
 00066,0.00069102,-0.00040978,-0.00001106,0.00167613,-0.00121835,0.0000
 0490,-0.00081287,-0.00005166,-0.00000127,0.00018517,0.00022372,0.00000
 082,-0.00003100,-0.00006944,0.00000520,0.00004680,0.00101217,-0.000503
 04,0.12868148,0.29609470,-0.00008463,-0.00000031,-0.00000121,0.0000109
 9,0.00000266,0.00000287,0.00024281,0.00000496,-0.00001105,0.00041715,0
 .00003040,0.00001853,0.00043613,0.00000714,0.00000410,0.00021372,-0.00
 000107,-0.00000173,0.00044505,0.00014971,-0.00024485,-0.05224830,0.000
 09642,-0.00053853,-0.00003711,-0.00000157,0.00000208,0.00000284,0.0000
 0003,-0.00000127,0.00000292,0.00000069,-0.00000034,-0.00004614,0.00000
 006,-0.00000073,0.00001899,0.00000027,0.00000020,-0.00043468,-0.000006
 72,0.00000073,0.00004414,0.00000052,-0.00000035,0.04759238,-0.00000056
 ,0.00004497,0.00021334,0.00000229,-0.00043466,-0.00055414,0.00000735,-
 0.00065498,0.00186995,0.00002559,-0.00484206,-0.00302748,0.00000667,-0
 .00079216,-0.00089851,-0.00000060,0.00037470,0.00033575,0.00018887,-0.
 02495074,0.04233363,0.00008295,-0.05858942,0.05204587,-0.00000176,0.00
 020163,-0.00028768,0.00000023,0.00000216,0.00018617,0.00000060,-0.0000
 8616,0.00004245,0.00000019,-0.00005696,0.00013180,0.00000014,-0.000022
 25,-0.00003749,-0.00000750,0.00081149,-0.00006084,0.00000059,-0.000046
 63,0.00005416,-0.00025759,0.08049097,-0.00000135,0.00021481,-0.0001345
 6,-0.00000035,0.00004520,-0.00007595,0.00000019,-0.00005015,0.00002079
 ,0.00000905,-0.00116865,0.00199735,0.00000205,-0.00044800,-0.00035760,
 -0.00000027,0.00007446,0.00024828,-0.00001165,0.00213467,0.00260981,-0
 .00062426,0.06672934,-0.31671194,0.00000128,-0.00015600,0.00029573,-0.
 00000039,0.00003289,-0.00015915,-0.00000098,0.00014404,-0.00007594,0.0
 0000004,-0.00000119,-0.00000102,-0.00000016,0.00002267,-0.00000565,-0.
 00000271,0.00051455,0.00010550,0.00000004,-0.00001100,0.00001324,0.000
 67640,-0.07216717,0.33494724,-0.00004452,0.00018122,-0.00017297,-0.000
 02417,-0.00015620,0.00013569,-0.00022440,0.00028310,-0.00037741,0.0005
 6019,-0.00068075,0.00166805,-0.00005770,0.00108980,0.00036385,-0.00006
 824,-0.00063520,-0.00006656,0.00697828,0.00482110,-0.00321004,-0.23244
 716,0.07053740,0.09687349,0.00002114,-0.00012722,0.00022112,0.00000403
 ,-0.00003952,-0.00012216,0.00000201,0.00001052,0.00000044,0.00000933,0
 .00000884,-0.00001806,0.00000429,-0.00008398,-0.00000070,-0.00011616,-
 0.00049831,-0.00046993,0.00001926,0.00003271,-0.00003648,0.00178005,-0
 .00163523,-0.00098166,0.24415479,0.00004797,0.00031782,0.00085732,-0.0
 0032128,0.00018064,-0.00104972,-0.00068390,-0.00170824,0.00102854,0.00
 139871,0.00386769,-0.00716814,-0.00024195,0.00086417,0.00080500,-0.000
 33228,-0.00040213,0.00032155,0.02994839,-0.03403692,-0.01275809,0.0647
 0136,-0.07462788,-0.03419550,0.00010316,0.00032738,-0.00046076,-0.0000
 2072,-0.00000948,0.00028718,-0.00001651,-0.00016127,0.00005680,0.00007
 571,-0.00002534,0.00001711,0.00021062,0.00017387,0.00002920,0.00070999
 ,-0.00016177,0.00079231,0.00001967,-0.00001933,0.00004089,-0.00668480,
 0.00421579,0.00205519,-0.08085705,0.09507591,0.00004838,-0.00083982,0.
 00001401,0.00005891,0.00006843,0.00061888,0.00025685,0.00043232,-0.000
 25300,-0.00129342,0.00009844,0.00112818,-0.00029450,-0.00083281,0.0003
 2952,0.00042399,0.00085670,-0.00052706,-0.00287475,-0.00173827,0.00288
 223,0.09864570,-0.03829913,-0.10574203,-0.00009426,0.00021538,-0.00044
 490,0.00001107,-0.00000539,0.00021096,0.00000924,-0.00016599,0.0000760
 6,-0.00002554,-0.00001472,0.00001781,-0.00001146,-0.00000199,-0.000006
 46,-0.00143214,0.00094576,-0.00127993,-0.00005434,-0.00000026,0.000014
 41,0.02631086,-0.00993192,-0.01138778,-0.10674360,0.04380354,0.1076528
 1,-0.00004145,-0.00018712,0.00016328,-0.00003020,0.00015397,-0.0001223
 2,-0.00022893,-0.00026537,0.00036557,0.00056883,0.00064269,-0.00158345
 ,-0.00004729,-0.00110176,-0.00037234,-0.00008036,0.00064055,0.00006180
 ,0.00738683,-0.00434145,0.00334905,-0.23120356,-0.07242704,-0.09624568
 ,0.00002055,0.00012410,-0.00021671,0.00000356,0.00003968,0.00011922,0.
 00000189,-0.00000894,-0.00000096,0.00001039,-0.00000846,0.00001788,0.0
 0000581,0.00008202,0.00000034,-0.00011064,0.00050081,0.00045853,0.0000
 2008,-0.00003224,0.00003598,0.00163939,0.00158790,0.00093458,-0.020545
 43,-0.00805728,-0.01294717,0.24263623,-0.00005054,0.00031551,0.0008594
 8,0.00031644,0.00018646,-0.00105223,0.00070377,-0.00170331,0.00103099,
 -0.00145300,0.00386056,-0.00718473,0.00023287,0.00085440,0.00079963,0.
 00033688,-0.00039114,0.00032193,-0.02948817,-0.03443721,-0.01266614,-0
 .06658161,-0.07622401,-0.03520126,-0.00010788,0.00032751,-0.00046289,0
 .00002157,-0.00000877,0.00028844,0.00001867,-0.00016111,0.00005671,-0.
 00007522,-0.00002632,0.00001741,-0.00021257,0.00017224,0.00002963,-0.0
 0070782,-0.00016442,0.00079872,-0.00001915,-0.00001993,0.00004134,0.00
 665932,0.00431207,0.00205444,0.00775709,0.00610391,0.00538614,0.082649
 95,0.09697831,-0.00003812,-0.00084027,0.00001371,-0.00005854,0.0000673
 9,0.00061953,-0.00026186,0.00043000,-0.00025318,0.00129465,0.00011217,
 0.00112978,0.00030507,-0.00082722,0.00032983,-0.00043520,0.00085066,-0
 .00052661,0.00288437,-0.00169547,0.00286834,-0.09797083,-0.03931717,-0
 .10539104,0.00009066,0.00021626,-0.00044476,-0.00001050,-0.00000559,0.
 00021076,-0.00000702,-0.00016610,0.00007611,0.00002567,-0.00001441,0.0
 0001775,0.00001150,-0.00000202,-0.00000650,0.00141889,0.00096199,-0.00
 128330,0.00005433,0.00000045,0.00001423,-0.02621576,-0.01024030,-0.011
 34145,0.01293209,0.00555064,0.00671197,0.10598708,0.04489551,0.1072704
 6,0.00426044,0.00005789,0.00002199,-0.00022855,-0.00000269,0.00000687,
 0.00010329,-0.00000309,-0.00000012,0.00010229,0.00000199,-0.00000289,-
 0.00041207,0.00000106,0.00000472,0.00071956,0.00000761,-0.00001179,-0.
 00003661,-0.00000343,0.00000396,0.00001968,0.00000191,-0.00000016,0.00
 397936,0.00023447,-0.00035697,-0.00576409,-0.00009513,0.00002942,-0.01
 461036,0.00077126,-0.00133317,-0.00013422,-0.00000370,-0.00000148,0.00
 000995,0.00000007,0.00000018,-0.00009968,-0.00000045,-0.00000067,0.000
 19000,0.00000242,-0.00000027,0.00000431,-0.00000013,0.00000014,-0.0000
 0558,0.00000020,0.00000617,-0.00000569,-0.00000061,-0.00000649,0.01190
 798,0.00005845,-0.00570076,-0.00371496,-0.00000338,0.00015878,-0.00099
 103,-0.00000291,0.00058520,-0.00000973,0.00000254,-0.00024412,0.000358
 86,0.00000009,-0.00055725,-0.00056009,0.00000919,-0.00048970,0.0017220
 1,-0.00000361,0.00046574,-0.00056281,0.00000166,-0.00025611,0.00002232
 ,0.00028597,-0.03110025,0.05689140,-0.00009405,0.00856595,-0.00444202,
 0.00071750,-0.10378518,0.12920516,-0.00000345,0.00047954,0.00027677,0.
 ,0.00000297,-0.00002972,-0.00000033,-0.00003063,0.00012006,0.00000243,
 -0.00019183,0.00001937,-0.00000013,0.00002225,-0.00002009,-0.00000833,
 0.00002516,0.00002359,0.00000801,0.00002524,0.00002349,-0.00096966,0.1
 3202498,0.00000704,-0.00186362,0.00156908,0.00000197,-0.00026306,0.000
 12171,0.00000012,-0.00003102,0.00004297,-0.00000059,-0.00000513,-0.000
 43978,0.00000104,-0.00000123,0.00048709,-0.00000205,0.00015722,-0.0000
 5668,0.00000187,-0.00024248,0.00034680,-0.00000102,0.00016547,-0.00001
 552,-0.00005655,0.00991160,0.00580433,0.00003362,-0.00559674,-0.005290
 58,-0.00162505,0.17590345,-0.44878076,-0.00000075,0.00018035,0.0001093
 6,-0.00000007,0.00001067,0.00000912,0.00000031,-0.00002821,0.00000255,
 -0.00000065,0.00006910,0.00002550,0.00000005,-0.00000758,0.00001311,0.
 00000483,-0.00001307,-0.00001566,-0.00000469,-0.00001312,-0.00001564,0
 .00164057,-0.17833258,0.44608301\\0.00002761,-0.00012006,-0.00010307,0
 .00000318,0.00006973,-0.00000314,-0.00000169,0.00001243,0.00009062,0.0
 0000348,-0.00004098,-0.00018923,-0.00000198,-0.00005929,0.00019794,0.0
 0000249,0.00014018,-0.00013232,-0.00000347,-0.00004923,0.00009151,0.00
 000134,0.00003049,-0.00001583,-0.00009604,0.00001365,0.00020794,0.0000
 3661,0.00007739,-0.00003678,0.00002891,-0.00011017,-0.00010676,0.00000
 056,-0.00004436,0.00002502,-0.00000032,-0.00000189,-0.00002878,-0.0000
 0096,0.00003843,-0.00003790,0.00000034,-0.00002296,0.00005562,0.000000
 59,-0.00001249,-0.00001206,-0.00002398,0.00000526,0.00003258,0.0000235
 0,0.00000506,0.00003360,-0.00000016,0.00006880,-0.00006895\\\@
 The archive entry for this job was punched.


 Everywhere is walking distance if you have the time.
                                    -- Steven Wright
 Job cpu time:       0 days 16 hours 10 minutes 45.1 seconds.
 Elapsed time:       0 days  0 hours 48 minutes 32.1 seconds.
 File lengths (MBytes):  RWF=    588 Int=      0 D2E=      0 Chk=     43 Scr=      1
 Normal termination of Gaussian 16 at Tue Mar  4 19:46:18 2025.
