 Entering Gaussian System, Link 0=g16
 Initial command:
 /usr/local/gaussian16c01/g16/l1.exe "/scr/dhuang/Gau-360520.inp" -scrdir="/scr/dhuang/"
 Entering Link 1 = /usr/local/gaussian16c01/g16/l1.exe PID=    360521.
  
 Copyright (c) 1988-2019, Gaussian, Inc.  All Rights Reserved.
  
 This is part of the Gaussian(R) 16 program.  It is based on
 the Gaussian(R) 09 system (copyright 2009, Gaussian, Inc.),
 the Gaussian(R) 03 system (copyright 2003, Gaussian, Inc.),
 the Gaussian(R) 98 system (copyright 1998, Gaussian, Inc.),
 the Gaussian(R) 94 system (copyright 1995, Gaussian, Inc.),
 the Gaussian 92(TM) system (copyright 1992, Gaussian, Inc.),
 the Gaussian 90(TM) system (copyright 1990, Gaussian, Inc.),
 the Gaussian 88(TM) system (copyright 1988, Gaussian, Inc.),
 the Gaussian 86(TM) system (copyright 1986, Carnegie Mellon
 University), and the Gaussian 82(TM) system (copyright 1983,
 Carnegie Mellon University). Gaussian is a federally registered
 trademark of Gaussian, Inc.
  
 This software contains proprietary and confidential information,
 including trade secrets, belonging to Gaussian, Inc.
  
 This software is provided under written license and may be
 used, copied, transmitted, or stored only in accord with that
 written license.
  
 The following legend is applicable only to US Government
 contracts under FAR:
  
                    RESTRICTED RIGHTS LEGEND
  
 Use, reproduction and disclosure by the US Government is
 subject to restrictions as set forth in subparagraphs (a)
 and (c) of the Commercial Computer Software - Restricted
 Rights clause in FAR 52.227-19.
  
 Gaussian, Inc.
 340 Quinnipiac St., Bldg. 40, Wallingford CT 06492
  
  
 ---------------------------------------------------------------
 Warning -- This program may not be used in any manner that
 competes with the business of Gaussian, Inc. or will provide
 assistance to any competitor of Gaussian, Inc.  The licensee
 of this program is prohibited from giving any competitor of
 Gaussian, Inc. access to this program.  By using this program,
 the user acknowledges that Gaussian, Inc. is engaged in the
 business of creating and licensing software in the field of
 computational chemistry and represents and warrants to the
 licensee that it is not a competitor of Gaussian, Inc. and that
 it will not use this program in any manner prohibited above.
 ---------------------------------------------------------------
  

 Cite this work as:
 Gaussian 16, Revision C.01,
 M. J. Frisch, G. W. Trucks, H. B. Schlegel, G. E. Scuseria, 
 M. A. Robb, J. R. Cheeseman, G. Scalmani, V. Barone, 
 G. A. Petersson, H. Nakatsuji, X. Li, M. Caricato, A. V. Marenich, 
 J. Bloino, B. G. Janesko, R. Gomperts, B. Mennucci, H. P. Hratchian, 
 J. V. Ortiz, A. F. Izmaylov, J. L. Sonnenberg, D. Williams-Young, 
 F. Ding, F. Lipparini, F. Egidi, J. Goings, B. Peng, A. Petrone, 
 T. Henderson, D. Ranasinghe, V. G. Zakrzewski, J. Gao, N. Rega, 
 G. Zheng, W. Liang, M. Hada, M. Ehara, K. Toyota, R. Fukuda, 
 J. Hasegawa, M. Ishida, T. Nakajima, Y. Honda, O. Kitao, H. Nakai, 
 T. Vreven, K. Throssell, J. A. Montgomery, Jr., J. E. Peralta, 
 F. Ogliaro, M. J. Bearpark, J. J. Heyd, E. N. Brothers, K. N. Kudin, 
 V. N. Staroverov, T. A. Keith, R. Kobayashi, J. Normand, 
 K. Raghavachari, A. P. Rendell, J. C. Burant, S. S. Iyengar, 
 J. Tomasi, M. Cossi, J. M. Millam, M. Klene, C. Adamo, R. Cammi, 
 J. W. Ochterski, R. L. Martin, K. Morokuma, O. Farkas, 
 J. B. Foresman, and D. J. Fox, Gaussian, Inc., Wallingford CT, 2019.
 
 ******************************************
 Gaussian 16:  ES64L-G16RevC.01  3-Jul-2019
                 4-Mar-2025 
 ******************************************
 %nprocshared=20
 Will use up to   20 processors via shared memory.
 %mem=10000MW
 %chk=23.chk
 ------------------------------------
 # opt freq m062x/aug-cc-pvtz pop=nbo
 ------------------------------------
 1/18=20,19=15,26=3,38=1/1,3;
 2/9=110,12=2,17=6,18=5,40=1/2;
 3/5=16,6=1,7=10,11=2,25=1,30=1,71=1,74=-55/1,2,3;
 4//1;
 5/5=2,38=5/2;
 6/7=2,8=2,9=2,10=2,28=1,40=1/1,7;
 7//1,2,3,16;
 1/18=20,19=15,26=3/3(2);
 2/9=110/2;
 99//99;
 2/9=110/2;
 3/5=16,6=1,7=10,11=2,25=1,30=1,71=1,74=-55/1,2,3;
 4/5=5,16=3,69=1/1;
 5/5=2,38=5/2;
 7//1,2,3,16;
 1/18=20,19=15,26=3/3(-5);
 2/9=110/2;
 6/7=2,8=2,9=2,10=2,19=2,28=1,40=1/1,7;
 99/9=1/99;
 --
 23
 --
 Symbolic Z-matrix:
 Charge =  0 Multiplicity = 1
 C                     2.18044   1.55112   1.14917 
 C                     2.68767   1.27603   2.3712 
 C                     2.03778   1.63542   3.48927 
 C                     0.85977   2.28183   3.4859 
 C                     0.36551   2.54972   2.26428 
 C                     0.99323   2.20241   1.12767 
 F                     0.37305   2.53983   0.005 
 F                     3.83653   0.64576   2.54265 
 O                     0.27083   2.60771   4.68409 
 C                    -0.96516   3.28322   4.67172 
 C                     2.8386    1.187    -0.0014 
 O                     2.38211   1.43381  -1.10371 
 O                     4.0322    0.5325   -0.0022 
 H                     2.49117   1.38898   4.4654 
 H                    -0.59629   3.07703   2.16051 
 H                    -1.2702    3.45261   5.72875 
 H                    -0.85913   4.27468   4.17739 
 H                    -1.74342   2.65677   4.18147 
 H                     4.38179   0.33835  -0.87865 
 

 GradGradGradGradGradGradGradGradGradGradGradGradGradGradGradGradGradGrad
 Berny optimization.
 Initialization pass.
                           ----------------------------
                           !    Initial Parameters    !
                           ! (Angstroms and Degrees)  !
 --------------------------                            --------------------------
 ! Name  Definition              Value          Derivative Info.                !
 --------------------------------------------------------------------------------
 ! R1    R(1,2)                  1.3514         estimate D2E/DX2                !
 ! R2    R(1,6)                  1.3543         estimate D2E/DX2                !
 ! R3    R(1,11)                 1.3746         estimate D2E/DX2                !
 ! R4    R(2,3)                  1.3422         estimate D2E/DX2                !
 ! R5    R(2,8)                  1.3216         estimate D2E/DX2                !
 ! R6    R(3,4)                  1.3437         estimate D2E/DX2                !
 ! R7    R(3,14)                 1.1041         estimate D2E/DX2                !
 ! R8    R(4,5)                  1.3448         estimate D2E/DX2                !
 ! R9    R(4,9)                  1.3743         estimate D2E/DX2                !
 ! R10   R(5,6)                  1.3441         estimate D2E/DX2                !
 ! R11   R(5,15)                 1.1018         estimate D2E/DX2                !
 ! R12   R(6,7)                  1.3262         estimate D2E/DX2                !
 ! R13   R(9,10)                 1.4086         estimate D2E/DX2                !
 ! R14   R(10,16)                1.1131         estimate D2E/DX2                !
 ! R15   R(10,17)                1.1129         estimate D2E/DX2                !
 ! R16   R(10,18)                1.1129         estimate D2E/DX2                !
 ! R17   R(11,12)                1.2184         estimate D2E/DX2                !
 ! R18   R(11,13)                1.3613         estimate D2E/DX2                !
 ! R19   R(13,19)                0.9634         estimate D2E/DX2                !
 ! A1    A(2,1,6)              116.1852         estimate D2E/DX2                !
 ! A2    A(2,1,11)             121.5502         estimate D2E/DX2                !
 ! A3    A(6,1,11)             122.2646         estimate D2E/DX2                !
 ! A4    A(1,2,3)              121.1317         estimate D2E/DX2                !
 ! A5    A(1,2,8)              122.73           estimate D2E/DX2                !
 ! A6    A(3,2,8)              116.1383         estimate D2E/DX2                !
 ! A7    A(2,3,4)              123.4489         estimate D2E/DX2                !
 ! A8    A(2,3,14)             118.5442         estimate D2E/DX2                !
 ! A9    A(4,3,14)             118.0069         estimate D2E/DX2                !
 ! A10   A(3,4,5)              114.8555         estimate D2E/DX2                !
 ! A11   A(3,4,9)              119.1817         estimate D2E/DX2                !
 ! A12   A(5,4,9)              125.9628         estimate D2E/DX2                !
 ! A13   A(4,5,6)              123.0292         estimate D2E/DX2                !
 ! A14   A(4,5,15)             120.1166         estimate D2E/DX2                !
 ! A15   A(6,5,15)             116.8541         estimate D2E/DX2                !
 ! A16   A(1,6,5)              121.3494         estimate D2E/DX2                !
 ! A17   A(1,6,7)              123.0742         estimate D2E/DX2                !
 ! A18   A(5,6,7)              115.5764         estimate D2E/DX2                !
 ! A19   A(4,9,10)             118.822          estimate D2E/DX2                !
 ! A20   A(9,10,16)            107.764          estimate D2E/DX2                !
 ! A21   A(9,10,17)            110.3363         estimate D2E/DX2                !
 ! A22   A(9,10,18)            110.3374         estimate D2E/DX2                !
 ! A23   A(16,10,17)           108.1996         estimate D2E/DX2                !
 ! A24   A(16,10,18)           108.2006         estimate D2E/DX2                !
 ! A25   A(17,10,18)           111.866          estimate D2E/DX2                !
 ! A26   A(1,11,12)            121.6168         estimate D2E/DX2                !
 ! A27   A(1,11,13)            123.2077         estimate D2E/DX2                !
 ! A28   A(12,11,13)           115.1755         estimate D2E/DX2                !
 ! A29   A(11,13,19)           114.5586         estimate D2E/DX2                !
 ! D1    D(6,1,2,3)              0.003          estimate D2E/DX2                !
 ! D2    D(6,1,2,8)            179.9816         estimate D2E/DX2                !
 ! D3    D(11,1,2,3)          -179.9957         estimate D2E/DX2                !
 ! D4    D(11,1,2,8)            -0.017          estimate D2E/DX2                !
 ! D5    D(2,1,6,5)             -0.0021         estimate D2E/DX2                !
 ! D6    D(2,1,6,7)            179.9958         estimate D2E/DX2                !
 ! D7    D(11,1,6,5)           179.9965         estimate D2E/DX2                !
 ! D8    D(11,1,6,7)            -0.0055         estimate D2E/DX2                !
 ! D9    D(2,1,11,12)          179.963          estimate D2E/DX2                !
 ! D10   D(2,1,11,13)           -0.017          estimate D2E/DX2                !
 ! D11   D(6,1,11,12)           -0.0355         estimate D2E/DX2                !
 ! D12   D(6,1,11,13)          179.9844         estimate D2E/DX2                !
 ! D13   D(1,2,3,4)             -0.0087         estimate D2E/DX2                !
 ! D14   D(1,2,3,14)           179.9871         estimate D2E/DX2                !
 ! D15   D(8,2,3,4)           -179.9886         estimate D2E/DX2                !
 ! D16   D(8,2,3,14)             0.0072         estimate D2E/DX2                !
 ! D17   D(2,3,4,5)              0.0123         estimate D2E/DX2                !
 ! D18   D(2,3,4,9)            179.9885         estimate D2E/DX2                !
 ! D19   D(14,3,4,5)          -179.9835         estimate D2E/DX2                !
 ! D20   D(14,3,4,9)            -0.0073         estimate D2E/DX2                !
 ! D21   D(3,4,5,6)             -0.0113         estimate D2E/DX2                !
 ! D22   D(3,4,5,15)           179.9907         estimate D2E/DX2                !
 ! D23   D(9,4,5,6)           -179.9857         estimate D2E/DX2                !
 ! D24   D(9,4,5,15)             0.0164         estimate D2E/DX2                !
 ! D25   D(3,4,9,10)          -179.8905         estimate D2E/DX2                !
 ! D26   D(5,4,9,10)             0.0829         estimate D2E/DX2                !
 ! D27   D(4,5,6,1)              0.0068         estimate D2E/DX2                !
 ! D28   D(4,5,6,7)           -179.9913         estimate D2E/DX2                !
 ! D29   D(15,5,6,1)          -179.9952         estimate D2E/DX2                !
 ! D30   D(15,5,6,7)             0.0067         estimate D2E/DX2                !
 ! D31   D(4,9,10,16)          179.9599         estimate D2E/DX2                !
 ! D32   D(4,9,10,17)          -62.1027         estimate D2E/DX2                !
 ! D33   D(4,9,10,18)           62.0207         estimate D2E/DX2                !
 ! D34   D(1,11,13,19)        -180.0            estimate D2E/DX2                !
 ! D35   D(12,11,13,19)          0.0188         estimate D2E/DX2                !
 --------------------------------------------------------------------------------
 Trust Radius=3.00D-01 FncErr=1.00D-07 GrdErr=1.00D-06 EigMax=2.50D+02 EigMin=1.00D-04
 Number of steps in this run=     93 maximum allowed number of steps=    114.
 GradGradGradGradGradGradGradGradGradGradGradGradGradGradGradGradGradGrad

                          Input orientation:                          
 ---------------------------------------------------------------------
 Center     Atomic      Atomic             Coordinates (Angstroms)
 Number     Number       Type             X           Y           Z
 ---------------------------------------------------------------------
      1          6           0        2.180436    1.551122    1.149169
      2          6           0        2.687666    1.276025    2.371201
      3          6           0        2.037783    1.635420    3.489270
      4          6           0        0.859775    2.281828    3.485901
      5          6           0        0.365505    2.549716    2.264283
      6          6           0        0.993231    2.202409    1.127674
      7          9           0        0.373049    2.539827    0.005000
      8          9           0        3.836534    0.645757    2.542653
      9          8           0        0.270831    2.607708    4.684087
     10          6           0       -0.965161    3.283223    4.671720
     11          6           0        2.838600    1.187000   -0.001400
     12          8           0        2.382113    1.433807   -1.103712
     13          8           0        4.032200    0.532500   -0.002200
     14          1           0        2.491170    1.388975    4.465398
     15          1           0       -0.596287    3.077027    2.160509
     16          1           0       -1.270198    3.452612    5.728747
     17          1           0       -0.859133    4.274677    4.177392
     18          1           0       -1.743420    2.656771    4.181474
     19          1           0        4.381794    0.338347   -0.878652
 ---------------------------------------------------------------------
                    Distance matrix (angstroms):
                    1          2          3          4          5
     1  C    0.000000
     2  C    1.351414   0.000000
     3  C    2.345959   1.342233   0.000000
     4  C    2.781797   2.365456   1.343711   0.000000
     5  C    2.352582   2.650689   2.265622   1.344774   0.000000
     6  C    1.354287   2.296880   2.643804   2.363335   1.344077
     7  F    2.356546   3.543099   3.966034   3.524222   2.259318
     8  F    2.346091   1.321564   2.260757   3.525272   3.968702
     9  O    4.154348   3.600543   2.344152   1.374300   2.422349
    10  C    5.030240   4.760712   3.623688   2.395694   2.846832
    11  C    1.374618   2.379063   3.609316   4.156401   3.620292
    12  O    2.264931   3.491888   4.610281   4.909298   4.081097
    13  O    2.406714   2.827301   4.169471   5.029044   4.759281
    14  H    3.334700   2.106426   1.104139   2.101916   3.272718
    15  H    3.325866   3.751313   3.283620   2.123470   1.101758
    16  H    6.041115   5.628084   4.388643   3.307246   3.936147
    17  H    5.082014   4.983375   3.978858   2.721075   2.852230
    18  H    5.080746   4.981774   3.977412   2.720483   2.852130
    19  H    3.229374   3.782969   5.124014   5.935576   5.558666
                    6          7          8          9         10
     6  C    0.000000
     7  F    1.326225   0.000000
     8  F    3.536906   4.692858   0.000000
     9  O    3.651602   4.680696   4.598829   0.000000
    10  C    4.190909   4.911387   5.877536   1.408599   0.000000
    11  C    2.389822   2.812316   2.785861   5.528619   6.379717
    12  O    2.738399   2.547324   4.004041   6.271696   6.926774
    13  O    3.646991   4.173583   2.554875   6.357332   7.374661
    14  H    3.747786   5.070114   2.461570   2.542251   3.946767
    15  H    2.087647   2.423720   5.070208   2.709354   2.546520
    16  H    5.277877   6.024510   6.641411   2.044492   1.113125
    17  H    4.126297   4.683678   6.155544   2.076619   1.112917
    18  H    4.125700   4.683595   6.153520   2.076592   1.112865
    19  H    4.356883   4.658045   3.478094   7.279703   8.250385
                   11         12         13         14         15
    11  C    0.000000
    12  O    1.218354   0.000000
    13  O    1.361268   2.179099   0.000000
    14  H    4.484840   5.570359   4.802890   0.000000
    15  H    4.477108   4.714465   5.707435   4.206475   0.000000
    16  H    7.406065   8.006088   8.335840   4.472420   3.650691
    17  H    6.377247   6.816618   7.442985   4.431112   2.360354
    18  H    6.375859   6.815340   7.441334   4.429411   2.361532
    19  H    1.967544   2.291159   0.963369   5.765167   6.443458
                   16         17         18         19
    16  H    0.000000
    17  H    1.803182   0.000000
    18  H    1.803152   1.843801   0.000000
    19  H    9.235875   8.278019   8.276365   0.000000
 Stoichiometry    C8H6F2O3
 Framework group  C1[X(C8H6F2O3)]
 Deg. of freedom    51
 Full point group                 C1      NOp   1
 Largest Abelian subgroup         C1      NOp   1
 Largest concise Abelian subgroup C1      NOp   1
                         Standard orientation:                         
 ---------------------------------------------------------------------
 Center     Atomic      Atomic             Coordinates (Angstroms)
 Number     Number       Type             X           Y           Z
 ---------------------------------------------------------------------
      1          6           0       -0.955495    0.061027   -0.000159
      2          6           0       -0.426240   -1.182441   -0.000197
      3          6           0        0.902683   -1.371000   -0.000388
      4          6           0        1.793485   -0.365004   -0.000723
      5          6           0        1.254680    0.867110   -0.000594
      6          6           0       -0.071313    1.086851   -0.000388
      7          9           0       -0.440583    2.360630   -0.000464
      8          9           0       -1.169337   -2.275298    0.000364
      9          8           0        3.136019   -0.658779   -0.000656
     10          6           0        4.063200    0.401637    0.001351
     11          6           0       -2.315034    0.264072    0.000125
     12          8           0       -2.793481    1.384552    0.000829
     13          8           0       -3.220625   -0.752273    0.000048
     14          1           0        1.288790   -2.405429   -0.000193
     15          1           0        1.906370    1.755463   -0.000691
     16          1           0        5.084767   -0.040457    0.001805
     17          1           0        3.950570    1.015625   -0.920016
     18          1           0        3.948880    1.013616    0.923783
     19          1           0       -4.141192   -0.468307    0.000274
 ---------------------------------------------------------------------
 Rotational constants (GHZ):           1.5284414           0.5605562           0.4112816
 Standard basis: Aug-CC-pVTZ (5D, 7F)
 There are   865 symmetry adapted cartesian basis functions of A   symmetry.
 There are   736 symmetry adapted basis functions of A   symmetry.
   736 basis functions,  1098 primitive gaussians,   865 cartesian basis functions
    48 alpha electrons       48 beta electrons
       nuclear repulsion energy       813.0515621124 Hartrees.
 NAtoms=   19 NActive=   19 NUniq=   19 SFac= 1.00D+00 NAtFMM=   60 NAOKFM=F Big=F
 Integral buffers will be    131072 words long.
 Raffenetti 2 integral format.
 Two-electron integral symmetry is turned on.
 One-electron integrals computed using PRISM.
 NBasis=   736 RedAO= T EigKep=  1.49D-06  NBF=   736
 NBsUse=   734 1.00D-06 EigRej=  6.94D-07 NBFU=   734
 ExpMin= 2.53D-02 ExpMax= 1.95D+04 ExpMxC= 6.65D+02 IAcc=3 IRadAn=         5 AccDes= 0.00D+00
 Harris functional with IExCor= 1009 and IRadAn=       5 diagonalized for initial guess.
 HarFok:  IExCor= 1009 AccDes= 0.00D+00 IRadAn=         5 IDoV= 1 UseB2=F ITyADJ=14
 ICtDFT=  3500011 ScaDFX=  1.000000  1.000000  1.000000  1.000000
 FoFCou: FMM=F IPFlag=           0 FMFlag=      100000 FMFlg1=           0
         NFxFlg=           0 DoJE=T BraDBF=F KetDBF=T FulRan=T
         wScrn=  0.000000 ICntrl=       500 IOpCl=  0 I1Cent=   200000004 NGrid=           0
         NMat0=    1 NMatS0=      1 NMatT0=    0 NMatD0=    1 NMtDS0=    0 NMtDT0=    0
 Petite list used in FoFCou.
 Requested convergence on RMS density matrix=1.00D-08 within 128 cycles.
 Requested convergence on MAX density matrix=1.00D-06.
 Requested convergence on             energy=1.00D-06.
 No special actions if energy rises.
 SCF Done:  E(RM062X) =  -733.802110762     A.U. after   14 cycles
            NFock= 14  Conv=0.30D-08     -V/T= 2.0038

 **********************************************************************

            Population analysis using the SCF Density.

 **********************************************************************

 Orbital symmetries:
       Occupied  (A) (A) (A) (A) (A) (A) (A) (A) (A) (A) (A) (A)
                 (A) (A) (A) (A) (A) (A) (A) (A) (A) (A) (A) (A)
                 (A) (A) (A) (A) (A) (A) (A) (A) (A) (A) (A) (A)
                 (A) (A) (A) (A) (A) (A) (A) (A) (A) (A) (A) (A)
       Virtual   (A) (A) (A) (A) (A) (A) (A) (A) (A) (A) (A) (A)
                 (A) (A) (A) (A) (A) (A) (A) (A) (A) (A) (A) (A)
                 (A) (A) (A) (A) (A) (A) (A) (A) (A) (A) (A) (A)
                 (A) (A) (A) (A) (A) (A) (A) (A) (A) (A) (A) (A)
                 (A) (A) (A) (A) (A) (A) (A) (A) (A) (A) (A) (A)
                 (A) (A) (A) (A) (A) (A) (A) (A) (A) (A) (A) (A)
                 (A) (A) (A) (A) (A) (A) (A) (A) (A) (A) (A) (A)
                 (A) (A) (A) (A) (A) (A) (A) (A) (A) (A) (A) (A)
                 (A) (A) (A) (A) (A) (A) (A) (A) (A) (A) (A) (A)
                 (A) (A) (A) (A) (A) (A) (A) (A) (A) (A) (A) (A)
                 (A) (A) (A) (A) (A) (A) (A) (A) (A) (A) (A) (A)
                 (A) (A) (A) (A) (A) (A) (A) (A) (A) (A) (A) (A)
                 (A) (A) (A) (A) (A) (A) (A) (A) (A) (A) (A) (A)
                 (A) (A) (A) (A) (A) (A) (A) (A) (A) (A) (A) (A)
                 (A) (A) (A) (A) (A) (A) (A) (A) (A) (A) (A) (A)
                 (A) (A) (A) (A) (A) (A) (A) (A) (A) (A) (A) (A)
                 (A) (A) (A) (A) (A) (A) (A) (A) (A) (A) (A) (A)
                 (A) (A) (A) (A) (A) (A) (A) (A) (A) (A) (A) (A)
                 (A) (A) (A) (A) (A) (A) (A) (A) (A) (A) (A) (A)
                 (A) (A) (A) (A) (A) (A) (A) (A) (A) (A) (A) (A)
                 (A) (A) (A) (A) (A) (A) (A) (A) (A) (A) (A) (A)
                 (A) (A) (A) (A) (A) (A) (A) (A) (A) (A) (A) (A)
                 (A) (A) (A) (A) (A) (A) (A) (A) (A) (A) (A) (A)
                 (A) (A) (A) (A) (A) (A) (A) (A) (A) (A) (A) (A)
                 (A) (A) (A) (A) (A) (A) (A) (A) (A) (A) (A) (A)
                 (A) (A) (A) (A) (A) (A) (A) (A) (A) (A) (A) (A)
                 (A) (A) (A) (A) (A) (A) (A) (A) (A) (A) (A) (A)
                 (A) (A) (A) (A) (A) (A) (A) (A) (A) (A) (A) (A)
                 (A) (A) (A) (A) (A) (A) (A) (A) (A) (A) (A) (A)
                 (A) (A) (A) (A) (A) (A) (A) (A) (A) (A) (A) (A)
                 (A) (A) (A) (A) (A) (A) (A) (A) (A) (A) (A) (A)
                 (A) (A) (A) (A) (A) (A) (A) (A) (A) (A) (A) (A)
                 (A) (A) (A) (A) (A) (A) (A) (A) (A) (A) (A) (A)
                 (A) (A) (A) (A) (A) (A) (A) (A) (A) (A) (A) (A)
                 (A) (A) (A) (A) (A) (A) (A) (A) (A) (A) (A) (A)
                 (A) (A) (A) (A) (A) (A) (A) (A) (A) (A) (A) (A)
                 (A) (A) (A) (A) (A) (A) (A) (A) (A) (A) (A) (A)
                 (A) (A) (A) (A) (A) (A) (A) (A) (A) (A) (A) (A)
                 (A) (A) (A) (A) (A) (A) (A) (A) (A) (A) (A) (A)
                 (A) (A) (A) (A) (A) (A) (A) (A) (A) (A) (A) (A)
                 (A) (A) (A) (A) (A) (A) (A) (A) (A) (A) (A) (A)
                 (A) (A) (A) (A) (A) (A) (A) (A) (A) (A) (A) (A)
                 (A) (A) (A) (A) (A) (A) (A) (A) (A) (A) (A) (A)
                 (A) (A) (A) (A) (A) (A) (A) (A) (A) (A) (A) (A)
                 (A) (A) (A) (A) (A) (A) (A) (A) (A) (A) (A) (A)
                 (A) (A) (A) (A) (A) (A) (A) (A) (A) (A) (A) (A)
                 (A) (A) (A) (A) (A) (A) (A) (A) (A) (A) (A) (A)
                 (A) (A) (A) (A) (A) (A) (A) (A) (A) (A) (A) (A)
                 (A) (A) (A) (A) (A) (A) (A) (A) (A) (A) (A) (A)
                 (A) (A) (A) (A) (A) (A) (A) (A) (A) (A) (A) (A)
                 (A) (A) (A) (A) (A) (A) (A) (A) (A) (A) (A) (A)
                 (A) (A) (A) (A) (A) (A) (A) (A) (A) (A) (A) (A)
                 (A) (A) (A) (A) (A) (A) (A) (A) (A) (A) (A) (A)
                 (A) (A) (A) (A) (A) (A) (A) (A) (A) (A) (A) (A)
                 (A) (A) (A) (A) (A) (A) (A) (A) (A) (A) (A) (A)
                 (A) (A) (A) (A) (A) (A) (A) (A) (A) (A) (A) (A)
                 (A) (A) (A) (A) (A) (A) (A) (A) (A) (A) (A) (A)
                 (A) (A)
 The electronic state is 1-A.
 Alpha  occ. eigenvalues --  -25.27758 -25.27301 -19.68818 -19.66249 -19.60397
 Alpha  occ. eigenvalues --  -10.68015 -10.65960 -10.65580 -10.63750 -10.61936
 Alpha  occ. eigenvalues --  -10.57134 -10.56009 -10.55465  -1.40476  -1.39778
 Alpha  occ. eigenvalues --   -1.23146  -1.22135  -1.12677  -1.03234  -0.92751
 Alpha  occ. eigenvalues --   -0.89057  -0.83544  -0.77804  -0.74812  -0.71938
 Alpha  occ. eigenvalues --   -0.67845  -0.65421  -0.62666  -0.61274  -0.61023
 Alpha  occ. eigenvalues --   -0.60703  -0.58780  -0.57623  -0.56929  -0.54183
 Alpha  occ. eigenvalues --   -0.53612  -0.53423  -0.51039  -0.49146  -0.47933
 Alpha  occ. eigenvalues --   -0.47074  -0.45405  -0.43072  -0.42122  -0.38990
 Alpha  occ. eigenvalues --   -0.35106  -0.33303  -0.32313
 Alpha virt. eigenvalues --   -0.03010  -0.01323  -0.00020   0.00586   0.00805
 Alpha virt. eigenvalues --    0.01159   0.01171   0.02754   0.03418   0.03625
 Alpha virt. eigenvalues --    0.03876   0.05311   0.05666   0.06399   0.06704
 Alpha virt. eigenvalues --    0.07315   0.07632   0.07708   0.08137   0.08349
 Alpha virt. eigenvalues --    0.08739   0.09398   0.09486   0.09618   0.10267
 Alpha virt. eigenvalues --    0.10546   0.10659   0.11134   0.11325   0.11877
 Alpha virt. eigenvalues --    0.13050   0.13137   0.13210   0.13271   0.14841
 Alpha virt. eigenvalues --    0.15598   0.15876   0.16651   0.16965   0.17932
 Alpha virt. eigenvalues --    0.17961   0.18774   0.19072   0.19320   0.19644
 Alpha virt. eigenvalues --    0.20071   0.20272   0.20481   0.21464   0.21805
 Alpha virt. eigenvalues --    0.22131   0.22945   0.23221   0.23298   0.23713
 Alpha virt. eigenvalues --    0.24046   0.24115   0.24647   0.25174   0.25651
 Alpha virt. eigenvalues --    0.25691   0.26216   0.26564   0.26867   0.27345
 Alpha virt. eigenvalues --    0.28836   0.28842   0.28903   0.29173   0.29808
 Alpha virt. eigenvalues --    0.29846   0.30359   0.31151   0.31928   0.32161
 Alpha virt. eigenvalues --    0.32682   0.32803   0.32971   0.33871   0.34172
 Alpha virt. eigenvalues --    0.34373   0.34990   0.35654   0.35988   0.36196
 Alpha virt. eigenvalues --    0.36681   0.36695   0.37042   0.37767   0.37867
 Alpha virt. eigenvalues --    0.38933   0.39193   0.39345   0.40152   0.41028
 Alpha virt. eigenvalues --    0.41056   0.41147   0.41643   0.42156   0.42624
 Alpha virt. eigenvalues --    0.42821   0.44323   0.44704   0.44725   0.45640
 Alpha virt. eigenvalues --    0.46073   0.46818   0.47441   0.48349   0.48491
 Alpha virt. eigenvalues --    0.48759   0.49600   0.50145   0.50772   0.50858
 Alpha virt. eigenvalues --    0.51801   0.53456   0.54235   0.54407   0.54567
 Alpha virt. eigenvalues --    0.54725   0.55801   0.56094   0.56137   0.56757
 Alpha virt. eigenvalues --    0.57945   0.58372   0.58465   0.60062   0.61321
 Alpha virt. eigenvalues --    0.62887   0.63451   0.64088   0.64220   0.65311
 Alpha virt. eigenvalues --    0.65712   0.66728   0.67093   0.67895   0.68206
 Alpha virt. eigenvalues --    0.69249   0.69657   0.70344   0.70826   0.71954
 Alpha virt. eigenvalues --    0.72800   0.73077   0.73399   0.73803   0.73834
 Alpha virt. eigenvalues --    0.74429   0.74493   0.75534   0.75889   0.76175
 Alpha virt. eigenvalues --    0.76666   0.76900   0.77056   0.77237   0.77872
 Alpha virt. eigenvalues --    0.79155   0.79398   0.80375   0.80608   0.80784
 Alpha virt. eigenvalues --    0.81553   0.82098   0.82329   0.82708   0.83109
 Alpha virt. eigenvalues --    0.83284   0.83647   0.84758   0.85817   0.86490
 Alpha virt. eigenvalues --    0.86551   0.86882   0.87698   0.88215   0.88447
 Alpha virt. eigenvalues --    0.89323   0.90152   0.90571   0.91036   0.91349
 Alpha virt. eigenvalues --    0.92222   0.92284   0.93475   0.93975   0.94477
 Alpha virt. eigenvalues --    0.95779   0.96042   0.96090   0.96536   0.97383
 Alpha virt. eigenvalues --    0.98203   0.98704   0.99515   1.00284   1.00585
 Alpha virt. eigenvalues --    1.00914   1.03080   1.03273   1.03474   1.03665
 Alpha virt. eigenvalues --    1.04445   1.04622   1.04901   1.05653   1.05988
 Alpha virt. eigenvalues --    1.06301   1.07401   1.08089   1.08246   1.09160
 Alpha virt. eigenvalues --    1.10460   1.10501   1.10692   1.11311   1.11582
 Alpha virt. eigenvalues --    1.12809   1.13947   1.14894   1.15552   1.15790
 Alpha virt. eigenvalues --    1.17175   1.18699   1.19077   1.19425   1.20246
 Alpha virt. eigenvalues --    1.20875   1.20889   1.21280   1.23394   1.24286
 Alpha virt. eigenvalues --    1.25133   1.25640   1.25945   1.27546   1.28084
 Alpha virt. eigenvalues --    1.28113   1.29085   1.31171   1.31850   1.32451
 Alpha virt. eigenvalues --    1.32736   1.32772   1.34876   1.35220   1.36568
 Alpha virt. eigenvalues --    1.37619   1.38227   1.39922   1.39977   1.40974
 Alpha virt. eigenvalues --    1.41512   1.42288   1.43868   1.43959   1.44143
 Alpha virt. eigenvalues --    1.44692   1.44988   1.46754   1.47883   1.48359
 Alpha virt. eigenvalues --    1.49309   1.50035   1.51059   1.51392   1.52187
 Alpha virt. eigenvalues --    1.52477   1.52908   1.54131   1.55022   1.55318
 Alpha virt. eigenvalues --    1.55615   1.56489   1.56860   1.58656   1.59295
 Alpha virt. eigenvalues --    1.60158   1.60338   1.60937   1.61129   1.63472
 Alpha virt. eigenvalues --    1.64539   1.65012   1.65729   1.65884   1.67349
 Alpha virt. eigenvalues --    1.67850   1.68906   1.69363   1.70483   1.71025
 Alpha virt. eigenvalues --    1.72634   1.73772   1.74149   1.74482   1.75447
 Alpha virt. eigenvalues --    1.75484   1.76915   1.77736   1.77852   1.78099
 Alpha virt. eigenvalues --    1.80240   1.80994   1.81449   1.83339   1.83352
 Alpha virt. eigenvalues --    1.85412   1.86741   1.87961   1.88125   1.89224
 Alpha virt. eigenvalues --    1.90786   1.92132   1.93936   1.94206   1.94947
 Alpha virt. eigenvalues --    1.95791   1.97514   1.97666   1.98808   1.98972
 Alpha virt. eigenvalues --    1.99490   2.01166   2.02394   2.03257   2.03593
 Alpha virt. eigenvalues --    2.04553   2.06551   2.07048   2.08999   2.09027
 Alpha virt. eigenvalues --    2.11353   2.11620   2.12879   2.13983   2.16275
 Alpha virt. eigenvalues --    2.16474   2.18517   2.19232   2.19399   2.21812
 Alpha virt. eigenvalues --    2.23407   2.25639   2.27929   2.29701   2.30182
 Alpha virt. eigenvalues --    2.33090   2.33664   2.34975   2.35001   2.38545
 Alpha virt. eigenvalues --    2.38556   2.39115   2.39525   2.40369   2.42267
 Alpha virt. eigenvalues --    2.46137   2.46725   2.46758   2.49326   2.50934
 Alpha virt. eigenvalues --    2.52839   2.53602   2.53924   2.54575   2.55339
 Alpha virt. eigenvalues --    2.58321   2.58406   2.60559   2.61545   2.63052
 Alpha virt. eigenvalues --    2.64693   2.67176   2.68773   2.69348   2.69630
 Alpha virt. eigenvalues --    2.70396   2.71560   2.73291   2.74959   2.76265
 Alpha virt. eigenvalues --    2.77183   2.78622   2.78900   2.81434   2.81696
 Alpha virt. eigenvalues --    2.83519   2.83772   2.83850   2.85393   2.87628
 Alpha virt. eigenvalues --    2.88138   2.89794   2.91034   2.91528   2.92752
 Alpha virt. eigenvalues --    2.94346   2.95278   2.95438   2.98854   2.99003
 Alpha virt. eigenvalues --    3.01793   3.02166   3.02916   3.03829   3.05409
 Alpha virt. eigenvalues --    3.06296   3.06935   3.07565   3.10506   3.11608
 Alpha virt. eigenvalues --    3.11787   3.12776   3.12947   3.14018   3.14554
 Alpha virt. eigenvalues --    3.15833   3.17201   3.17347   3.20075   3.20700
 Alpha virt. eigenvalues --    3.22074   3.22737   3.22851   3.25042   3.25435
 Alpha virt. eigenvalues --    3.26001   3.28611   3.29750   3.29930   3.30271
 Alpha virt. eigenvalues --    3.30919   3.32289   3.32622   3.33088   3.35161
 Alpha virt. eigenvalues --    3.36851   3.36979   3.38493   3.38588   3.40176
 Alpha virt. eigenvalues --    3.41505   3.42415   3.44119   3.45329   3.45398
 Alpha virt. eigenvalues --    3.46116   3.46856   3.47313   3.48320   3.48999
 Alpha virt. eigenvalues --    3.50067   3.50080   3.51096   3.51863   3.52963
 Alpha virt. eigenvalues --    3.53668   3.54511   3.56163   3.56809   3.57560
 Alpha virt. eigenvalues --    3.57967   3.58299   3.61286   3.61374   3.62433
 Alpha virt. eigenvalues --    3.64213   3.65441   3.66358   3.69593   3.70534
 Alpha virt. eigenvalues --    3.70780   3.71647   3.72898   3.73445   3.75964
 Alpha virt. eigenvalues --    3.76507   3.77695   3.78555   3.79268   3.79735
 Alpha virt. eigenvalues --    3.81801   3.82841   3.84973   3.85650   3.87970
 Alpha virt. eigenvalues --    3.89300   3.90580   3.91944   3.92154   3.93773
 Alpha virt. eigenvalues --    3.95090   3.95303   3.97572   3.98400   3.99447
 Alpha virt. eigenvalues --    3.99756   4.00281   4.01081   4.01307   4.04540
 Alpha virt. eigenvalues --    4.06054   4.07508   4.09149   4.09500   4.10405
 Alpha virt. eigenvalues --    4.11298   4.12569   4.14077   4.15234   4.15870
 Alpha virt. eigenvalues --    4.17957   4.18430   4.19760   4.20949   4.21051
 Alpha virt. eigenvalues --    4.24611   4.24986   4.25926   4.27638   4.28986
 Alpha virt. eigenvalues --    4.30721   4.30957   4.33229   4.34296   4.37268
 Alpha virt. eigenvalues --    4.38283   4.38767   4.41518   4.42677   4.43086
 Alpha virt. eigenvalues --    4.44289   4.46121   4.46464   4.49612   4.50922
 Alpha virt. eigenvalues --    4.52094   4.52770   4.55904   4.56150   4.58088
 Alpha virt. eigenvalues --    4.60068   4.60281   4.62604   4.64419   4.65265
 Alpha virt. eigenvalues --    4.66853   4.68259   4.70721   4.71608   4.73482
 Alpha virt. eigenvalues --    4.74986   4.75895   4.79094   4.80186   4.83202
 Alpha virt. eigenvalues --    4.87135   4.88391   4.90501   4.91573   4.93069
 Alpha virt. eigenvalues --    4.96161   4.97672   4.97696   4.99766   5.00661
 Alpha virt. eigenvalues --    5.02918   5.06227   5.07476   5.10852   5.13424
 Alpha virt. eigenvalues --    5.13597   5.16509   5.20742   5.23162   5.23819
 Alpha virt. eigenvalues --    5.26076   5.31590   5.32228   5.35541   5.37616
 Alpha virt. eigenvalues --    5.38358   5.40595   5.44254   5.47120   5.54556
 Alpha virt. eigenvalues --    5.57450   5.61592   5.64964   5.70530   5.74768
 Alpha virt. eigenvalues --    5.76068   5.81368   5.87566   5.91725   5.93597
 Alpha virt. eigenvalues --    5.99717   6.13806   6.18443   6.20177   6.23500
 Alpha virt. eigenvalues --    6.25088   6.27215   6.30682   6.32434   6.34271
 Alpha virt. eigenvalues --    6.36595   6.38641   6.42703   6.44667   6.47743
 Alpha virt. eigenvalues --    6.52214   6.54018   6.54603   6.62635   6.63489
 Alpha virt. eigenvalues --    6.69325   6.71968   6.74417   6.77484   6.78267
 Alpha virt. eigenvalues --    6.82805   6.86979   6.88531   6.91726   6.95042
 Alpha virt. eigenvalues --    6.96567   7.00603   7.02071   7.09731   7.10511
 Alpha virt. eigenvalues --    7.13520   7.14587   7.20002   7.30835   7.33075
 Alpha virt. eigenvalues --    7.33778   7.36269   7.42059   7.51555   7.66225
 Alpha virt. eigenvalues --    7.85034   7.88750   8.00772   8.06637   8.45389
 Alpha virt. eigenvalues --    8.47082   8.57143   8.58355   8.71707   8.71945
 Alpha virt. eigenvalues --    8.77098   8.78167   8.83753   8.84996   8.86160
 Alpha virt. eigenvalues --    8.90489   8.97177   8.97669   9.01505   9.03114
 Alpha virt. eigenvalues --    9.05674   9.07278   9.07915   9.11040   9.39745
 Alpha virt. eigenvalues --    9.42372   9.44194   9.51795  15.25502  15.47170
 Alpha virt. eigenvalues --   15.61933  15.98255  16.34867  17.22463  17.38181
 Alpha virt. eigenvalues --   17.54191  18.84109  19.55418  20.24872  20.57727
 Alpha virt. eigenvalues --   20.75808
          Condensed to atoms (all electrons):
               1          2          3          4          5          6
     1  C    8.350070  -0.770025  -0.144595  -0.358336  -0.187489  -1.253039
     2  C   -0.770025   7.949933   0.029109  -0.250308  -0.271201  -0.190379
     3  C   -0.144595   0.029109   8.094041  -0.570687  -0.349534  -0.209770
     4  C   -0.358336  -0.250308  -0.570687   7.215950  -0.381250  -0.154693
     5  C   -0.187489  -0.271201  -0.349534  -0.381250   7.557672  -0.079976
     6  C   -1.253039  -0.190379  -0.209770  -0.154693  -0.079976   9.002126
     7  F    0.001378   0.010775  -0.000728   0.064558  -0.006464  -0.333786
     8  F    0.039598  -0.102402  -0.199896   0.079970  -0.001073   0.010276
     9  O   -0.001812   0.048469  -0.080092  -0.325910  -0.158777  -0.031483
    10  C   -0.007226   0.010554  -0.056690   0.076063  -0.030056   0.030813
    11  C   -0.992951  -0.513342   0.013716   0.226600  -0.057275  -0.531078
    12  O   -0.097115  -0.023551   0.023795  -0.026490   0.010889  -0.001581
    13  O   -0.113329  -0.012478  -0.007522   0.004631  -0.006844   0.026089
    14  H   -0.022897  -0.550494   0.458646  -0.311862  -0.056452  -0.005508
    15  H    0.002665   0.005738  -0.171416  -0.457657   0.368325  -0.685895
    16  H    0.004045   0.000209  -0.005897  -0.012828   0.024384  -0.008459
    17  H   -0.011315   0.004434   0.001686   0.027664  -0.035207   0.022722
    18  H   -0.011278   0.004439   0.001730   0.027647  -0.035266   0.022637
    19  H    0.008386  -0.017971  -0.002166   0.000753  -0.001523  -0.017987
               7          8          9         10         11         12
     1  C    0.001378   0.039598  -0.001812  -0.007226  -0.992951  -0.097115
     2  C    0.010775  -0.102402   0.048469   0.010554  -0.513342  -0.023551
     3  C   -0.000728  -0.199896  -0.080092  -0.056690   0.013716   0.023795
     4  C    0.064558   0.079970  -0.325910   0.076063   0.226600  -0.026490
     5  C   -0.006464  -0.001073  -0.158777  -0.030056  -0.057275   0.010889
     6  C   -0.333786   0.010276  -0.031483   0.030813  -0.531078  -0.001581
     7  F    9.764685   0.001735  -0.001484  -0.008507   0.075745  -0.020558
     8  F    0.001735   9.741281  -0.007072   0.000936   0.047452  -0.004812
     9  O   -0.001484  -0.007072   9.480321   0.063012  -0.020306   0.001223
    10  C   -0.008507   0.000936   0.063012   6.063316  -0.003260   0.000334
    11  C    0.075745   0.047452  -0.020306  -0.003260   7.836769  -0.049979
    12  O   -0.020558  -0.004812   0.001223   0.000334  -0.049979   9.269134
    13  O   -0.002401  -0.037122   0.000683   0.000064   0.076470  -0.098297
    14  H    0.002576  -0.016336  -0.089254  -0.031398   0.023430   0.000647
    15  H    0.033171  -0.000197  -0.062727  -0.191717   0.005260   0.000066
    16  H    0.000302  -0.000061  -0.028604   0.370196  -0.000376   0.000054
    17  H   -0.001716   0.000114  -0.014619   0.358844   0.000508  -0.000177
    18  H   -0.001708   0.000110  -0.014400   0.358692   0.000504  -0.000175
    19  H    0.000060   0.008626  -0.000215   0.000007   0.083376  -0.106003
              13         14         15         16         17         18
     1  C   -0.113329  -0.022897   0.002665   0.004045  -0.011315  -0.011278
     2  C   -0.012478  -0.550494   0.005738   0.000209   0.004434   0.004439
     3  C   -0.007522   0.458646  -0.171416  -0.005897   0.001686   0.001730
     4  C    0.004631  -0.311862  -0.457657  -0.012828   0.027664   0.027647
     5  C   -0.006844  -0.056452   0.368325   0.024384  -0.035207  -0.035266
     6  C    0.026089  -0.005508  -0.685895  -0.008459   0.022722   0.022637
     7  F   -0.002401   0.002576   0.033171   0.000302  -0.001716  -0.001708
     8  F   -0.037122  -0.016336  -0.000197  -0.000061   0.000114   0.000110
     9  O    0.000683  -0.089254  -0.062727  -0.028604  -0.014619  -0.014400
    10  C    0.000064  -0.031398  -0.191717   0.370196   0.358844   0.358692
    11  C    0.076470   0.023430   0.005260  -0.000376   0.000508   0.000504
    12  O   -0.098297   0.000647   0.000066   0.000054  -0.000177  -0.000175
    13  O    8.595099  -0.001839   0.001600  -0.000011  -0.000022  -0.000022
    14  H   -0.001839   1.195010   0.000423  -0.000530  -0.002448  -0.002415
    15  H    0.001600   0.000423   1.967033   0.009130  -0.050995  -0.050773
    16  H   -0.000011  -0.000530   0.009130   0.394904  -0.023922  -0.023906
    17  H   -0.000022  -0.002448  -0.050995  -0.023922   0.363575   0.011041
    18  H   -0.000022  -0.002415  -0.050773  -0.023906   0.011041   0.363362
    19  H    0.138440   0.000067  -0.000414  -0.000003   0.000014   0.000013
              19
     1  C    0.008386
     2  C   -0.017971
     3  C   -0.002166
     4  C    0.000753
     5  C   -0.001523
     6  C   -0.017987
     7  F    0.000060
     8  F    0.008626
     9  O   -0.000215
    10  C    0.000007
    11  C    0.083376
    12  O   -0.106003
    13  O    0.138440
    14  H    0.000067
    15  H   -0.000414
    16  H   -0.000003
    17  H    0.000014
    18  H    0.000013
    19  H    0.627272
 Mulliken charges:
               1
     1  C    1.565265
     2  C    0.638494
     3  C   -0.823731
     4  C    1.126184
     5  C   -0.302883
     6  C    0.388971
     7  F   -0.577634
     8  F   -0.561127
     9  O   -0.756955
    10  C   -1.003977
    11  C   -0.221263
    12  O   -0.877405
    13  O   -0.563189
    14  H    0.410633
    15  H    0.278383
    16  H    0.301376
    17  H    0.349820
    18  H    0.349768
    19  H    0.279270
 Sum of Mulliken charges =   0.00000
 Mulliken charges with hydrogens summed into heavy atoms:
               1
     1  C    1.565265
     2  C    0.638494
     3  C   -0.413098
     4  C    1.126184
     5  C   -0.024501
     6  C    0.388971
     7  F   -0.577634
     8  F   -0.561127
     9  O   -0.756955
    10  C   -0.003013
    11  C   -0.221263
    12  O   -0.877405
    13  O   -0.283920
 Electronic spatial extent (au):  <R**2>=           2498.1937
 Charge=              0.0000 electrons
 Dipole moment (field-independent basis, Debye):
    X=              3.8828    Y=             -0.6420    Z=              0.0009  Tot=              3.9356
 Quadrupole moment (field-independent basis, Debye-Ang):
   XX=            -59.2347   YY=            -80.2364   ZZ=            -72.2504
   XY=              8.9260   XZ=              0.0119   YZ=             -0.0032
 Traceless Quadrupole moment (field-independent basis, Debye-Ang):
   XX=             11.3391   YY=             -9.6626   ZZ=             -1.6766
   XY=              8.9260   XZ=              0.0119   YZ=             -0.0032
 Octapole moment (field-independent basis, Debye-Ang**2):
  XXX=             -3.0416  YYY=             -9.1678  ZZZ=              0.0077  XYY=             17.3178
  XXY=             -0.9826  XXZ=              0.0326  XZZ=             -7.7201  YZZ=              1.4741
  YYZ=             -0.0048  XYZ=              0.0032
 Hexadecapole moment (field-independent basis, Debye-Ang**3):
 XXXX=          -1717.7723 YYYY=           -730.6221 ZZZZ=            -76.1901 XXXY=            124.6913
 XXXZ=              0.1453 YYYX=             10.5776 YYYZ=             -0.0143 ZZZX=             -0.0008
 ZZZY=             -0.0090 XXYY=           -540.9059 XXZZ=           -384.8093 YYZZ=           -131.2391
 XXYZ=             -0.0506 YYXZ=              0.0006 ZZXY=              3.8532
 N-N= 8.130515621124D+02 E-N=-3.350840438564D+03  KE= 7.309990763840D+02
 ******************************Gaussian NBO Version 3.1******************************
             N A T U R A L   A T O M I C   O R B I T A L   A N D
          N A T U R A L   B O N D   O R B I T A L   A N A L Y S I S
 ******************************Gaussian NBO Version 3.1******************************
       /RESON  / : Allow strongly delocalized NBO set

 Analyzing the SCF density

 Job title: 23                                                              

 Storage needed:   1628152 in NPA,   2169399 in NBO (********** available)
 GSVD:  LWork=       11254 too small for GESVD, short by     1045013 words or     1045013 for optimal perf.
 Remove ICRem=  238 ICRemI=  239 L=1 PNAO number  246 atom    6 type 153 NPNAO=  736
   due to symmetric orthogonalization 2, value= 0.00D+00.
 Remove ICRem=  238 ICRemI=  239 L=1 PNAO number  242 atom    6 type 152 NPNAO=  735
   due to symmetric orthogonalization 2, value= 0.00D+00.
 Remove ICRem=  238 ICRemI=  239 L=1 PNAO number  238 atom    6 type 151 NPNAO=  734
   due to symmetric orthogonalization 2, value= 0.00D+00.
 GSVD:  LWork=       17416 too small for GESVD, short by     1026554 words or     1026554 for optimal perf.

 Computed number of electrons   95.99994853 does not match expected value of    96.


 NATURAL POPULATIONS:  Natural atomic orbital occupancies 
                                                          
   NAO  Atom  No  lang   Type(AO)    Occupancy      Energy
 ----------------------------------------------------------
     1    C    1  S      Cor( 1S)     1.99865     -10.39619
     2    C    1  S      Val( 2S)     0.91176      -0.14884
     3    C    1  S      Ryd( 3S)     0.00102       1.82188
     4    C    1  S      Ryd( 4S)     0.00014       2.28339
     5    C    1  S      Ryd( 5S)     0.00005       3.96109
     6    C    1  px     Val( 2p)     1.13059      -0.14391
     7    C    1  px     Ryd( 4p)     0.00377       2.48827
     8    C    1  px     Ryd( 3p)     0.00019       1.08215
     9    C    1  px     Ryd( 5p)     0.00007       2.82377
    10    C    1  py     Val( 2p)     1.13129      -0.13658
    11    C    1  py     Ryd( 4p)     0.00604       2.12117
    12    C    1  py     Ryd( 3p)     0.00021       1.25811
    13    C    1  py     Ryd( 5p)     0.00011       2.82874
    14    C    1  pz     Val( 2p)     1.16408      -0.16661
    15    C    1  pz     Ryd( 4p)     0.00174       0.97237
    16    C    1  pz     Ryd( 3p)     0.00051       0.79682
    17    C    1  pz     Ryd( 5p)     0.00018       1.91000
    18    C    1  dxy    Ryd( 3d)     0.00101       3.13418
    19    C    1  dxy    Ryd( 4d)     0.00043       3.70542
    20    C    1  dxy    Ryd( 5d)     0.00007       5.82279
    21    C    1  dxz    Ryd( 3d)     0.00031       1.38667
    22    C    1  dxz    Ryd( 5d)     0.00016       3.06818
    23    C    1  dxz    Ryd( 4d)     0.00005       2.40916
    24    C    1  dyz    Ryd( 3d)     0.00042       1.35105
    25    C    1  dyz    Ryd( 5d)     0.00014       3.00543
    26    C    1  dyz    Ryd( 4d)     0.00002       2.58882
    27    C    1  dx2y2  Ryd( 3d)     0.00158       3.41520
    28    C    1  dx2y2  Ryd( 4d)     0.00039       3.82706
    29    C    1  dx2y2  Ryd( 5d)     0.00005       5.49690
    30    C    1  dz2    Ryd( 3d)     0.00086       1.64536
    31    C    1  dz2    Ryd( 4d)     0.00033       3.83643
    32    C    1  dz2    Ryd( 5d)     0.00008       3.99727
    33    C    1  f(0)   Ryd( 4f)     0.00066       1.70109
    34    C    1  f(0)   Ryd( 5f)     0.00031       3.30118
    35    C    1  f(C1)  Ryd( 4f)     0.00068       2.09365
    36    C    1  f(C1)  Ryd( 5f)     0.00048       3.48485
    37    C    1  f(S1)  Ryd( 4f)     0.00071       2.01003
    38    C    1  f(S1)  Ryd( 5f)     0.00033       3.53818
    39    C    1  f(C2)  Ryd( 4f)     0.00068       1.72302
    40    C    1  f(C2)  Ryd( 5f)     0.00006       3.18787
    41    C    1  f(S2)  Ryd( 4f)     0.00061       1.59704
    42    C    1  f(S2)  Ryd( 5f)     0.00007       3.28633
    43    C    1  f(C3)  Ryd( 4f)     0.00157       2.84046
    44    C    1  f(C3)  Ryd( 5f)     0.00019       4.81254
    45    C    1  f(S3)  Ryd( 4f)     0.00136       2.75640
    46    C    1  f(S3)  Ryd( 5f)     0.00026       4.49273
 
    47    C    2  S      Cor( 1S)     1.99835     -10.50901
    48    C    2  S      Val( 2S)     0.81824      -0.15102
    49    C    2  S      Ryd( 4S)     0.00197       2.35872
    50    C    2  S      Ryd( 3S)     0.00012       2.08513
    51    C    2  S      Ryd( 5S)     0.00002       2.74254
    52    C    2  px     Val( 2p)     0.93037      -0.08899
    53    C    2  px     Ryd( 4p)     0.00521       1.84618
    54    C    2  px     Ryd( 5p)     0.00015       2.04192
    55    C    2  px     Ryd( 3p)     0.00008       1.43950
    56    C    2  py     Val( 2p)     0.79294      -0.05555
    57    C    2  py     Ryd( 4p)     0.00663       1.76490
    58    C    2  py     Ryd( 5p)     0.00012       1.81680
    59    C    2  py     Ryd( 3p)     0.00007       1.70711
    60    C    2  pz     Val( 2p)     0.93802      -0.15498
    61    C    2  pz     Ryd( 4p)     0.00058       1.13497
    62    C    2  pz     Ryd( 5p)     0.00032       1.35296
    63    C    2  pz     Ryd( 3p)     0.00016       0.79250
    64    C    2  dxy    Ryd( 3d)     0.00084       3.04679
    65    C    2  dxy    Ryd( 4d)     0.00051       3.35767
    66    C    2  dxy    Ryd( 5d)     0.00012       3.98793
    67    C    2  dxz    Ryd( 3d)     0.00198       1.69420
    68    C    2  dxz    Ryd( 5d)     0.00010       2.60202
    69    C    2  dxz    Ryd( 4d)     0.00005       2.41286
    70    C    2  dyz    Ryd( 3d)     0.00267       1.57827
    71    C    2  dyz    Ryd( 5d)     0.00012       2.63157
    72    C    2  dyz    Ryd( 4d)     0.00006       2.20988
    73    C    2  dx2y2  Ryd( 3d)     0.00229       3.32543
    74    C    2  dx2y2  Ryd( 4d)     0.00028       3.46901
    75    C    2  dx2y2  Ryd( 5d)     0.00011       4.00147
    76    C    2  dz2    Ryd( 3d)     0.00051       2.34969
    77    C    2  dz2    Ryd( 4d)     0.00043       3.43844
    78    C    2  dz2    Ryd( 5d)     0.00014       3.47958
    79    C    2  f(0)   Ryd( 4f)     0.00008       1.37395
    80    C    2  f(0)   Ryd( 5f)     0.00024       3.64901
    81    C    2  f(C1)  Ryd( 4f)     0.00035       1.67864
    82    C    2  f(C1)  Ryd( 5f)     0.00028       3.84906
    83    C    2  f(S1)  Ryd( 4f)     0.00040       1.50102
    84    C    2  f(S1)  Ryd( 5f)     0.00024       3.80512
    85    C    2  f(C2)  Ryd( 4f)     0.00034       1.20100
    86    C    2  f(C2)  Ryd( 5f)     0.00003       3.66322
    87    C    2  f(S2)  Ryd( 4f)     0.00043       1.38288
    88    C    2  f(S2)  Ryd( 5f)     0.00009       3.73631
    89    C    2  f(C3)  Ryd( 4f)     0.00053       2.28329
    90    C    2  f(C3)  Ryd( 5f)     0.00013       4.41464
    91    C    2  f(S3)  Ryd( 4f)     0.00216       1.96971
    92    C    2  f(S3)  Ryd( 5f)     0.00016       4.76706
 
    93    C    3  S      Cor( 1S)     1.99894     -10.38936
    94    C    3  S      Val( 2S)     0.95710      -0.20284
    95    C    3  S      Ryd( 3S)     0.00117       1.77703
    96    C    3  S      Ryd( 5S)     0.00013       2.96962
    97    C    3  S      Ryd( 4S)     0.00002       2.17796
    98    C    3  px     Val( 2p)     1.08169      -0.10200
    99    C    3  px     Ryd( 5p)     0.00385       1.92100
   100    C    3  px     Ryd( 4p)     0.00022       1.90004
   101    C    3  px     Ryd( 3p)     0.00003       1.63087
   102    C    3  py     Val( 2p)     1.17793      -0.12026
   103    C    3  py     Ryd( 4p)     0.00355       1.81664
   104    C    3  py     Ryd( 5p)     0.00012       1.98402
   105    C    3  py     Ryd( 3p)     0.00006       1.44224
   106    C    3  pz     Val( 2p)     1.08949      -0.14987
   107    C    3  pz     Ryd( 4p)     0.00088       1.03682
   108    C    3  pz     Ryd( 5p)     0.00005       1.31102
   109    C    3  pz     Ryd( 3p)     0.00019       0.99237
   110    C    3  dxy    Ryd( 4d)     0.00231       3.03625
   111    C    3  dxy    Ryd( 5d)     0.00030       4.12315
   112    C    3  dxy    Ryd( 3d)     0.00009       2.82160
   113    C    3  dxz    Ryd( 3d)     0.00055       1.44601
   114    C    3  dxz    Ryd( 5d)     0.00002       3.26523
   115    C    3  dxz    Ryd( 4d)     0.00004       1.76596
   116    C    3  dyz    Ryd( 3d)     0.00075       1.33264
   117    C    3  dyz    Ryd( 5d)     0.00004       3.27953
   118    C    3  dyz    Ryd( 4d)     0.00013       1.49848
   119    C    3  dx2y2  Ryd( 4d)     0.00215       2.82833
   120    C    3  dx2y2  Ryd( 5d)     0.00023       4.15327
   121    C    3  dx2y2  Ryd( 3d)     0.00008       2.60978
   122    C    3  dz2    Ryd( 3d)     0.00174       1.72531
   123    C    3  dz2    Ryd( 5d)     0.00021       3.90162
   124    C    3  dz2    Ryd( 4d)     0.00007       3.49870
   125    C    3  f(0)   Ryd( 5f)     0.00023       3.55368
   126    C    3  f(0)   Ryd( 4f)     0.00005       2.23739
   127    C    3  f(C1)  Ryd( 5f)     0.00030       3.86958
   128    C    3  f(C1)  Ryd( 4f)     0.00004       3.14781
   129    C    3  f(S1)  Ryd( 5f)     0.00022       3.70121
   130    C    3  f(S1)  Ryd( 4f)     0.00003       3.19411
   131    C    3  f(C2)  Ryd( 5f)     0.00003       3.66327
   132    C    3  f(C2)  Ryd( 4f)     0.00001       2.50566
   133    C    3  f(S2)  Ryd( 5f)     0.00004       3.64995
   134    C    3  f(S2)  Ryd( 4f)     0.00002       2.43733
   135    C    3  f(C3)  Ryd( 4f)     0.00019       4.27061
   136    C    3  f(C3)  Ryd( 5f)     0.00005       6.01608
   137    C    3  f(S3)  Ryd( 5f)     0.00015       4.40596
   138    C    3  f(S3)  Ryd( 4f)     0.00010       4.28307
 
   139    C    4  S      Cor( 1S)     1.99852     -10.48280
   140    C    4  S      Val( 2S)     0.82357      -0.14818
   141    C    4  S      Ryd( 3S)     0.00122       2.19662
   142    C    4  S      Ryd( 4S)     0.00010       2.21837
   143    C    4  S      Ryd( 5S)     0.00001       2.60013
   144    C    4  px     Val( 2p)     0.79928      -0.06035
   145    C    4  px     Ryd( 4p)     0.00451       1.78417
   146    C    4  px     Ryd( 5p)     0.00007       1.91956
   147    C    4  px     Ryd( 3p)     0.00006       1.43571
   148    C    4  py     Val( 2p)     1.06317      -0.09474
   149    C    4  py     Ryd( 5p)     0.00529       1.84451
   150    C    4  py     Ryd( 3p)     0.00013       1.31687
   151    C    4  py     Ryd( 4p)     0.00004       1.60543
   152    C    4  pz     Val( 2p)     0.92549      -0.14731
   153    C    4  pz     Ryd( 3p)     0.00041       0.98805
   154    C    4  pz     Ryd( 5p)     0.00019       1.10904
   155    C    4  pz     Ryd( 4p)     0.00018       1.04735
   156    C    4  dxy    Ryd( 3d)     0.00222       3.28853
   157    C    4  dxy    Ryd( 4d)     0.00024       3.54545
   158    C    4  dxy    Ryd( 5d)     0.00009       4.65331
   159    C    4  dxz    Ryd( 3d)     0.00259       1.36627
   160    C    4  dxz    Ryd( 5d)     0.00005       2.58761
   161    C    4  dxz    Ryd( 4d)     0.00006       2.53206
   162    C    4  dyz    Ryd( 3d)     0.00201       1.51842
   163    C    4  dyz    Ryd( 5d)     0.00011       2.54356
   164    C    4  dyz    Ryd( 4d)     0.00001       2.46698
   165    C    4  dx2y2  Ryd( 3d)     0.00084       2.93122
   166    C    4  dx2y2  Ryd( 5d)     0.00028       3.63433
   167    C    4  dx2y2  Ryd( 4d)     0.00008       3.55237
   168    C    4  dz2    Ryd( 3d)     0.00067       2.05005
   169    C    4  dz2    Ryd( 5d)     0.00038       3.96534
   170    C    4  dz2    Ryd( 4d)     0.00012       3.56657
   171    C    4  f(0)   Ryd( 4f)     0.00002       1.46964
   172    C    4  f(0)   Ryd( 5f)     0.00017       3.64570
   173    C    4  f(C1)  Ryd( 4f)     0.00080       1.70006
   174    C    4  f(C1)  Ryd( 5f)     0.00017       3.74474
   175    C    4  f(S1)  Ryd( 4f)     0.00041       1.63723
   176    C    4  f(S1)  Ryd( 5f)     0.00026       3.76380
   177    C    4  f(C2)  Ryd( 4f)     0.00055       1.33648
   178    C    4  f(C2)  Ryd( 5f)     0.00006       3.73425
   179    C    4  f(S2)  Ryd( 4f)     0.00056       1.35397
   180    C    4  f(S2)  Ryd( 5f)     0.00003       3.70984
   181    C    4  f(C3)  Ryd( 4f)     0.00103       2.58855
   182    C    4  f(C3)  Ryd( 5f)     0.00007       4.52046
   183    C    4  f(S3)  Ryd( 4f)     0.00168       2.14023
   184    C    4  f(S3)  Ryd( 5f)     0.00013       4.71400
 
   185    C    5  S      Cor( 1S)     1.99893     -10.39490
   186    C    5  S      Val( 2S)     0.95828      -0.20233
   187    C    5  S      Ryd( 3S)     0.00164       1.59087
   188    C    5  S      Ryd( 5S)     0.00017       2.56517
   189    C    5  S      Ryd( 4S)     0.00002       2.47266
   190    C    5  px     Val( 2p)     1.11749      -0.11896
   191    C    5  px     Ryd( 4p)     0.00266       1.89551
   192    C    5  px     Ryd( 3p)     0.00015       1.03920
   193    C    5  px     Ryd( 5p)     0.00009       3.17020
   194    C    5  py     Val( 2p)     1.15986      -0.11774
   195    C    5  py     Ryd( 4p)     0.00475       1.60801
   196    C    5  py     Ryd( 3p)     0.00020       1.35307
   197    C    5  py     Ryd( 5p)     0.00010       2.57261
   198    C    5  pz     Val( 2p)     1.11656      -0.15927
   199    C    5  pz     Ryd( 3p)     0.00112       0.84723
   200    C    5  pz     Ryd( 4p)     0.00069       1.02304
   201    C    5  pz     Ryd( 5p)     0.00012       1.75098
   202    C    5  dxy    Ryd( 3d)     0.00140       2.18804
   203    C    5  dxy    Ryd( 4d)     0.00020       3.64697
   204    C    5  dxy    Ryd( 5d)     0.00011       4.03316
   205    C    5  dxz    Ryd( 3d)     0.00037       1.38178
   206    C    5  dxz    Ryd( 5d)     0.00005       3.00760
   207    C    5  dxz    Ryd( 4d)     0.00009       2.05101
   208    C    5  dyz    Ryd( 3d)     0.00070       1.31109
   209    C    5  dyz    Ryd( 5d)     0.00007       3.08174
   210    C    5  dyz    Ryd( 4d)     0.00004       1.89896
   211    C    5  dx2y2  Ryd( 4d)     0.00254       3.56010
   212    C    5  dx2y2  Ryd( 5d)     0.00037       3.82343
   213    C    5  dx2y2  Ryd( 3d)     0.00005       3.02807
   214    C    5  dz2    Ryd( 3d)     0.00140       1.64793
   215    C    5  dz2    Ryd( 5d)     0.00026       4.17417
   216    C    5  dz2    Ryd( 4d)     0.00005       3.72951
   217    C    5  f(0)   Ryd( 4f)     0.00053       1.86528
   218    C    5  f(0)   Ryd( 5f)     0.00022       3.01924
   219    C    5  f(C1)  Ryd( 4f)     0.00092       2.37609
   220    C    5  f(C1)  Ryd( 5f)     0.00011       3.19380
   221    C    5  f(S1)  Ryd( 4f)     0.00077       2.33593
   222    C    5  f(S1)  Ryd( 5f)     0.00012       3.14304
   223    C    5  f(C2)  Ryd( 4f)     0.00009       1.96898
   224    C    5  f(C2)  Ryd( 5f)     0.00003       2.91979
   225    C    5  f(S2)  Ryd( 4f)     0.00014       2.00557
   226    C    5  f(S2)  Ryd( 5f)     0.00013       2.89890
   227    C    5  f(C3)  Ryd( 4f)     0.00055       3.29353
   228    C    5  f(C3)  Ryd( 5f)     0.00022       4.49889
   229    C    5  f(S3)  Ryd( 4f)     0.00060       2.58411
   230    C    5  f(S3)  Ryd( 5f)     0.00028       3.57951
 
   231    C    6  S      Cor( 1S)     1.99834     -10.51375
   232    C    6  S      Val( 2S)     0.81790      -0.15103
   233    C    6  S      Ryd( 4S)     0.00250       2.24931
   234    C    6  S      Ryd( 3S)     0.00014       2.07934
   235    C    6  S      Ryd( 5S)     0.00002       2.69358
   236    C    6  px     Val( 2p)     1.00413      -0.08623
   237    C    6  px     Ryd( 3p)     0.00372       1.88781
   238    C    6  px     Ryd( 4p)     0.00007       2.65435
   239    C    6  py     Val( 2p)     0.69899      -0.04976
   240    C    6  py     Ryd( 3p)     0.00757       1.64975
   241    C    6  py     Ryd( 4p)     0.00010       2.76082
   242    C    6  pz     Val( 2p)     0.91744      -0.15406
   243    C    6  pz     Ryd( 3p)     0.00055       1.08583
   244    C    6  pz     Ryd( 4p)     0.00018       1.63806
   245    C    6  dxy    Ryd( 4d)     0.00131       3.98852
   246    C    6  dxy    Ryd( 3d)     0.00053       3.39362
   247    C    6  dxy    Ryd( 5d)     0.00009       4.02472
   248    C    6  dxz    Ryd( 3d)     0.00092       1.89066
   249    C    6  dxz    Ryd( 5d)     0.00007       2.51640
   250    C    6  dxz    Ryd( 4d)     0.00006       2.38976
   251    C    6  dyz    Ryd( 3d)     0.00276       1.66342
   252    C    6  dyz    Ryd( 5d)     0.00025       2.51381
   253    C    6  dyz    Ryd( 4d)     0.00005       2.40251
   254    C    6  dx2y2  Ryd( 3d)     0.00092       3.35394
   255    C    6  dx2y2  Ryd( 4d)     0.00051       3.50916
   256    C    6  dx2y2  Ryd( 5d)     0.00015       3.77216
   257    C    6  dz2    Ryd( 3d)     0.00050       2.32376
   258    C    6  dz2    Ryd( 4d)     0.00052       3.24894
   259    C    6  dz2    Ryd( 5d)     0.00010       3.40876
   260    C    6  f(0)   Ryd( 4f)     0.00009       1.40214
   261    C    6  f(0)   Ryd( 5f)     0.00026       3.67529
   262    C    6  f(C1)  Ryd( 4f)     0.00043       1.81507
   263    C    6  f(C1)  Ryd( 5f)     0.00026       3.93232
   264    C    6  f(S1)  Ryd( 4f)     0.00068       1.61651
   265    C    6  f(S1)  Ryd( 5f)     0.00016       3.77690
   266    C    6  f(C2)  Ryd( 4f)     0.00034       1.32838
   267    C    6  f(C2)  Ryd( 5f)     0.00008       3.76351
   268    C    6  f(S2)  Ryd( 4f)     0.00048       1.26331
   269    C    6  f(S2)  Ryd( 5f)     0.00003       3.67964
   270    C    6  f(C3)  Ryd( 4f)     0.00094       2.55616
   271    C    6  f(C3)  Ryd( 5f)     0.00016       4.53688
   272    C    6  f(S3)  Ryd( 4f)     0.00169       2.07160
   273    C    6  f(S3)  Ryd( 5f)     0.00015       4.73626
 
   274    F    7  S      Cor( 1S)     1.99993     -25.00489
   275    F    7  S      Val( 2S)     1.82075      -1.40722
   276    F    7  S      Ryd( 4S)     0.00062       2.72114
   277    F    7  S      Ryd( 3S)     0.00010       2.17656
   278    F    7  S      Ryd( 5S)     0.00001      11.07805
   279    F    7  px     Val( 2p)     1.94293      -0.52719
   280    F    7  px     Ryd( 3p)     0.00105       0.97430
   281    F    7  px     Ryd( 4p)     0.00020       1.56369
   282    F    7  px     Ryd( 5p)     0.00005       5.33206
   283    F    7  py     Val( 2p)     1.61176      -0.48915
   284    F    7  py     Ryd( 3p)     0.00057       1.03416
   285    F    7  py     Ryd( 4p)     0.00023       1.10662
   286    F    7  py     Ryd( 5p)     0.00002       6.26815
   287    F    7  pz     Val( 2p)     1.91711      -0.52528
   288    F    7  pz     Ryd( 4p)     0.00116       0.88734
   289    F    7  pz     Ryd( 3p)     0.00026       0.74422
   290    F    7  pz     Ryd( 5p)     0.00000       4.86968
   291    F    7  dxy    Ryd( 4d)     0.00086       3.60809
   292    F    7  dxy    Ryd( 3d)     0.00004       3.33685
   293    F    7  dxy    Ryd( 5d)     0.00001       9.00344
   294    F    7  dxz    Ryd( 4d)     0.00010       2.75861
   295    F    7  dxz    Ryd( 3d)     0.00004       1.89796
   296    F    7  dxz    Ryd( 5d)     0.00000       8.66450
   297    F    7  dyz    Ryd( 4d)     0.00100       3.00560
   298    F    7  dyz    Ryd( 3d)     0.00006       2.33854
   299    F    7  dyz    Ryd( 5d)     0.00001       8.75650
   300    F    7  dx2y2  Ryd( 4d)     0.00115       3.95651
   301    F    7  dx2y2  Ryd( 3d)     0.00006       3.83850
   302    F    7  dx2y2  Ryd( 5d)     0.00001       9.02484
   303    F    7  dz2    Ryd( 4d)     0.00044       3.59922
   304    F    7  dz2    Ryd( 3d)     0.00004       3.35017
   305    F    7  dz2    Ryd( 5d)     0.00000       8.82419
   306    F    7  f(0)   Ryd( 4f)     0.00004       3.96295
   307    F    7  f(0)   Ryd( 5f)     0.00001       7.57299
   308    F    7  f(C1)  Ryd( 4f)     0.00001       3.99905
   309    F    7  f(C1)  Ryd( 5f)     0.00001       7.61467
   310    F    7  f(S1)  Ryd( 4f)     0.00003       4.08282
   311    F    7  f(S1)  Ryd( 5f)     0.00001       7.86255
   312    F    7  f(C2)  Ryd( 4f)     0.00009       3.96325
   313    F    7  f(C2)  Ryd( 5f)     0.00001       7.70809
   314    F    7  f(S2)  Ryd( 4f)     0.00002       3.94851
   315    F    7  f(S2)  Ryd( 5f)     0.00000       7.79520
   316    F    7  f(C3)  Ryd( 4f)     0.00007       4.24406
   317    F    7  f(C3)  Ryd( 5f)     0.00002       8.08099
   318    F    7  f(S3)  Ryd( 4f)     0.00006       4.18476
   319    F    7  f(S3)  Ryd( 5f)     0.00003       8.07498
 
   320    F    8  S      Cor( 1S)     1.99993     -25.00755
   321    F    8  S      Val( 2S)     1.81798      -1.41222
   322    F    8  S      Ryd( 4S)     0.00092       2.45950
   323    F    8  S      Ryd( 3S)     0.00006       2.18867
   324    F    8  S      Ryd( 5S)     0.00001      11.05621
   325    F    8  px     Val( 2p)     1.85534      -0.52304
   326    F    8  px     Ryd( 3p)     0.00119       0.94615
   327    F    8  px     Ryd( 4p)     0.00027       1.53130
   328    F    8  px     Ryd( 5p)     0.00004       5.39591
   329    F    8  py     Val( 2p)     1.70295      -0.50676
   330    F    8  py     Ryd( 3p)     0.00052       0.92813
   331    F    8  py     Ryd( 4p)     0.00021       1.29885
   332    F    8  py     Ryd( 5p)     0.00004       5.80388
   333    F    8  pz     Val( 2p)     1.92044      -0.53157
   334    F    8  pz     Ryd( 3p)     0.00143       0.79198
   335    F    8  pz     Ryd( 4p)     0.00007       0.95808
   336    F    8  pz     Ryd( 5p)     0.00001       4.75572
   337    F    8  dxy    Ryd( 3d)     0.00113       3.90563
   338    F    8  dxy    Ryd( 4d)     0.00010       4.33873
   339    F    8  dxy    Ryd( 5d)     0.00000       8.92750
   340    F    8  dxz    Ryd( 4d)     0.00035       2.82454
   341    F    8  dxz    Ryd( 3d)     0.00005       2.00182
   342    F    8  dxz    Ryd( 5d)     0.00001       8.65874
   343    F    8  dyz    Ryd( 4d)     0.00072       2.91987
   344    F    8  dyz    Ryd( 3d)     0.00004       2.23629
   345    F    8  dyz    Ryd( 5d)     0.00001       8.68458
   346    F    8  dx2y2  Ryd( 4d)     0.00078       3.43396
   347    F    8  dx2y2  Ryd( 3d)     0.00003       3.08032
   348    F    8  dx2y2  Ryd( 5d)     0.00002       8.95055
   349    F    8  dz2    Ryd( 4d)     0.00043       3.57116
   350    F    8  dz2    Ryd( 3d)     0.00004       3.56008
   351    F    8  dz2    Ryd( 5d)     0.00000       8.77465
   352    F    8  f(0)   Ryd( 4f)     0.00006       3.73464
   353    F    8  f(0)   Ryd( 5f)     0.00000       7.79486
   354    F    8  f(C1)  Ryd( 4f)     0.00003       3.78934
   355    F    8  f(C1)  Ryd( 5f)     0.00001       7.89015
   356    F    8  f(S1)  Ryd( 4f)     0.00005       3.84688
   357    F    8  f(S1)  Ryd( 5f)     0.00001       7.97796
   358    F    8  f(C2)  Ryd( 4f)     0.00002       3.73038
   359    F    8  f(C2)  Ryd( 5f)     0.00000       8.01042
   360    F    8  f(S2)  Ryd( 4f)     0.00009       3.74649
   361    F    8  f(S2)  Ryd( 5f)     0.00002       7.89472
   362    F    8  f(C3)  Ryd( 4f)     0.00007       4.02474
   363    F    8  f(C3)  Ryd( 5f)     0.00002       8.24901
   364    F    8  f(S3)  Ryd( 4f)     0.00008       3.99653
   365    F    8  f(S3)  Ryd( 5f)     0.00002       8.24752
 
   366    O    9  S      Cor( 1S)     1.99975     -19.48634
   367    O    9  S      Val( 2S)     1.58908      -0.97874
   368    O    9  S      Ryd( 4S)     0.00197       2.55313
   369    O    9  S      Ryd( 3S)     0.00023       1.79152
   370    O    9  S      Ryd( 5S)     0.00001      10.64638
   371    O    9  px     Val( 2p)     1.35959      -0.35304
   372    O    9  px     Ryd( 4p)     0.00164       1.76056
   373    O    9  px     Ryd( 3p)     0.00016       1.23864
   374    O    9  px     Ryd( 5p)     0.00003       5.12396
   375    O    9  py     Val( 2p)     1.68932      -0.40912
   376    O    9  py     Ryd( 3p)     0.00247       1.22599
   377    O    9  py     Ryd( 4p)     0.00015       1.39820
   378    O    9  py     Ryd( 5p)     0.00009       4.47940
   379    O    9  pz     Val( 2p)     1.84758      -0.41449
   380    O    9  pz     Ryd( 3p)     0.00348       0.95648
   381    O    9  pz     Ryd( 4p)     0.00007       1.12298
   382    O    9  pz     Ryd( 5p)     0.00001       3.80220
   383    O    9  dxy    Ryd( 3d)     0.00367       2.28809
   384    O    9  dxy    Ryd( 4d)     0.00017       2.96735
   385    O    9  dxy    Ryd( 5d)     0.00007       6.69573
   386    O    9  dxz    Ryd( 3d)     0.00035       1.50901
   387    O    9  dxz    Ryd( 4d)     0.00027       2.29864
   388    O    9  dxz    Ryd( 5d)     0.00004       6.36112
   389    O    9  dyz    Ryd( 3d)     0.00303       1.32275
   390    O    9  dyz    Ryd( 4d)     0.00006       2.21466
   391    O    9  dyz    Ryd( 5d)     0.00002       6.14473
   392    O    9  dx2y2  Ryd( 3d)     0.00338       2.03700
   393    O    9  dx2y2  Ryd( 4d)     0.00020       2.97277
   394    O    9  dx2y2  Ryd( 5d)     0.00006       6.57481
   395    O    9  dz2    Ryd( 3d)     0.00277       1.67772
   396    O    9  dz2    Ryd( 4d)     0.00011       2.53276
   397    O    9  dz2    Ryd( 5d)     0.00002       6.52164
   398    O    9  f(0)   Ryd( 4f)     0.00044       2.80771
   399    O    9  f(0)   Ryd( 5f)     0.00002       6.11307
   400    O    9  f(C1)  Ryd( 4f)     0.00015       4.31577
   401    O    9  f(C1)  Ryd( 5f)     0.00004       6.51470
   402    O    9  f(S1)  Ryd( 4f)     0.00013       3.34732
   403    O    9  f(S1)  Ryd( 5f)     0.00002       6.24168
   404    O    9  f(C2)  Ryd( 4f)     0.00005       2.90225
   405    O    9  f(C2)  Ryd( 5f)     0.00002       6.31310
   406    O    9  f(S2)  Ryd( 4f)     0.00008       2.91757
   407    O    9  f(S2)  Ryd( 5f)     0.00002       6.35662
   408    O    9  f(C3)  Ryd( 4f)     0.00011       4.52722
   409    O    9  f(C3)  Ryd( 5f)     0.00005       6.69499
   410    O    9  f(S3)  Ryd( 4f)     0.00006       4.07679
   411    O    9  f(S3)  Ryd( 5f)     0.00009       6.67217
 
   412    C   10  S      Cor( 1S)     1.99942     -10.49706
   413    C   10  S      Val( 2S)     1.09550      -0.34458
   414    C   10  S      Ryd( 3S)     0.00180       1.02356
   415    C   10  S      Ryd( 5S)     0.00018       3.69096
   416    C   10  S      Ryd( 4S)     0.00006       3.66058
   417    C   10  px     Val( 2p)     0.99824      -0.13032
   418    C   10  px     Ryd( 4p)     0.00205       1.17366
   419    C   10  px     Ryd( 5p)     0.00022       2.16006
   420    C   10  px     Ryd( 3p)     0.00004       0.97792
   421    C   10  py     Val( 2p)     0.93606      -0.11572
   422    C   10  py     Ryd( 4p)     0.00353       0.94127
   423    C   10  py     Ryd( 5p)     0.00012       2.20000
   424    C   10  py     Ryd( 3p)     0.00009       0.67166
   425    C   10  pz     Val( 2p)     1.18309      -0.15183
   426    C   10  pz     Ryd( 4p)     0.00030       1.03835
   427    C   10  pz     Ryd( 5p)     0.00020       1.92939
   428    C   10  pz     Ryd( 3p)     0.00002       0.59978
   429    C   10  dxy    Ryd( 5d)     0.00061       3.92760
   430    C   10  dxy    Ryd( 3d)     0.00014       1.18933
   431    C   10  dxy    Ryd( 4d)     0.00002       3.34290
   432    C   10  dxz    Ryd( 4d)     0.00028       3.10542
   433    C   10  dxz    Ryd( 3d)     0.00010       1.20201
   434    C   10  dxz    Ryd( 5d)     0.00005       3.13805
   435    C   10  dyz    Ryd( 5d)     0.00152       3.42207
   436    C   10  dyz    Ryd( 3d)     0.00024       1.20779
   437    C   10  dyz    Ryd( 4d)     0.00000       3.14071
   438    C   10  dx2y2  Ryd( 4d)     0.00071       3.22711
   439    C   10  dx2y2  Ryd( 3d)     0.00003       1.25605
   440    C   10  dx2y2  Ryd( 5d)     0.00003       3.56412
   441    C   10  dz2    Ryd( 5d)     0.00063       3.58806
   442    C   10  dz2    Ryd( 3d)     0.00013       1.22346
   443    C   10  dz2    Ryd( 4d)     0.00002       3.33402
   444    C   10  f(0)   Ryd( 4f)     0.00003       2.19712
   445    C   10  f(0)   Ryd( 5f)     0.00001       3.51629
   446    C   10  f(C1)  Ryd( 4f)     0.00011       2.82334
   447    C   10  f(C1)  Ryd( 5f)     0.00001       3.66192
   448    C   10  f(S1)  Ryd( 4f)     0.00016       2.81258
   449    C   10  f(S1)  Ryd( 5f)     0.00013       3.77257
   450    C   10  f(C2)  Ryd( 4f)     0.00009       2.59070
   451    C   10  f(C2)  Ryd( 5f)     0.00000       3.53610
   452    C   10  f(S2)  Ryd( 4f)     0.00009       2.27000
   453    C   10  f(S2)  Ryd( 5f)     0.00003       3.46136
   454    C   10  f(C3)  Ryd( 4f)     0.00003       2.62864
   455    C   10  f(C3)  Ryd( 5f)     0.00006       3.66309
   456    C   10  f(S3)  Ryd( 4f)     0.00016       2.68761
   457    C   10  f(S3)  Ryd( 5f)     0.00007       3.57634
 
   458    C   11  S      Cor( 1S)     1.99918     -10.54726
   459    C   11  S      Val( 2S)     0.77533      -0.11435
   460    C   11  S      Ryd( 3S)     0.00433       1.93447
   461    C   11  S      Ryd( 4S)     0.00017       1.97268
   462    C   11  S      Ryd( 5S)     0.00007       2.46446
   463    C   11  px     Val( 2p)     0.88796      -0.04651
   464    C   11  px     Ryd( 5p)     0.00491       1.66524
   465    C   11  px     Ryd( 3p)     0.00026       1.19689
   466    C   11  px     Ryd( 4p)     0.00002       1.39327
   467    C   11  py     Val( 2p)     0.74305      -0.02788
   468    C   11  py     Ryd( 4p)     0.01346       1.62410
   469    C   11  py     Ryd( 3p)     0.00023       1.18256
   470    C   11  py     Ryd( 5p)     0.00005       2.01368
   471    C   11  pz     Val( 2p)     0.77254      -0.12955
   472    C   11  pz     Ryd( 5p)     0.00059       1.16117
   473    C   11  pz     Ryd( 3p)     0.00016       0.71247
   474    C   11  pz     Ryd( 4p)     0.00021       1.05505
   475    C   11  dxy    Ryd( 3d)     0.00099       3.00711
   476    C   11  dxy    Ryd( 4d)     0.00054       3.17276
   477    C   11  dxy    Ryd( 5d)     0.00005       3.23017
   478    C   11  dxz    Ryd( 3d)     0.00162       2.18166
   479    C   11  dxz    Ryd( 5d)     0.00016       2.27469
   480    C   11  dxz    Ryd( 4d)     0.00004       2.26715
   481    C   11  dyz    Ryd( 3d)     0.00206       2.19981
   482    C   11  dyz    Ryd( 4d)     0.00008       2.36852
   483    C   11  dyz    Ryd( 5d)     0.00004       2.42632
   484    C   11  dx2y2  Ryd( 4d)     0.00172       3.03024
   485    C   11  dx2y2  Ryd( 3d)     0.00017       2.79646
   486    C   11  dx2y2  Ryd( 5d)     0.00007       3.72055
   487    C   11  dz2    Ryd( 4d)     0.00041       3.11785
   488    C   11  dz2    Ryd( 3d)     0.00053       3.00813
   489    C   11  dz2    Ryd( 5d)     0.00013       3.29608
   490    C   11  f(0)   Ryd( 5f)     0.00013       3.54768
   491    C   11  f(0)   Ryd( 4f)     0.00002       2.38849
   492    C   11  f(C1)  Ryd( 5f)     0.00015       3.75122
   493    C   11  f(C1)  Ryd( 4f)     0.00002       3.26946
   494    C   11  f(S1)  Ryd( 5f)     0.00008       3.66564
   495    C   11  f(S1)  Ryd( 4f)     0.00005       3.34441
   496    C   11  f(C2)  Ryd( 5f)     0.00000       3.48119
   497    C   11  f(C2)  Ryd( 4f)     0.00006       2.56965
   498    C   11  f(S2)  Ryd( 5f)     0.00003       3.64087
   499    C   11  f(S2)  Ryd( 4f)     0.00001       2.83243
   500    C   11  f(C3)  Ryd( 4f)     0.00008       4.68391
   501    C   11  f(C3)  Ryd( 5f)     0.00002       7.38620
   502    C   11  f(S3)  Ryd( 4f)     0.00007       4.62576
   503    C   11  f(S3)  Ryd( 5f)     0.00004       4.88126
 
   504    O   12  S      Cor( 1S)     1.99979     -19.32291
   505    O   12  S      Val( 2S)     1.71030      -0.99509
   506    O   12  S      Ryd( 4S)     0.00093       2.57414
   507    O   12  S      Ryd( 3S)     0.00013       2.38737
   508    O   12  S      Ryd( 5S)     0.00002       8.46087
   509    O   12  px     Val( 2p)     1.81049      -0.33304
   510    O   12  px     Ryd( 4p)     0.00143       1.37824
   511    O   12  px     Ryd( 3p)     0.00010       0.82044
   512    O   12  px     Ryd( 5p)     0.00004       4.68450
   513    O   12  py     Val( 2p)     1.59526      -0.32669
   514    O   12  py     Ryd( 4p)     0.00102       1.59539
   515    O   12  py     Ryd( 3p)     0.00011       0.67475
   516    O   12  py     Ryd( 5p)     0.00006       5.40786
   517    O   12  pz     Val( 2p)     1.44948      -0.28154
   518    O   12  pz     Ryd( 4p)     0.00061       1.06620
   519    O   12  pz     Ryd( 3p)     0.00016       0.51440
   520    O   12  pz     Ryd( 5p)     0.00001       4.18819
   521    O   12  dxy    Ryd( 3d)     0.00702       1.99888
   522    O   12  dxy    Ryd( 4d)     0.00008       2.93844
   523    O   12  dxy    Ryd( 5d)     0.00004       6.52963
   524    O   12  dxz    Ryd( 3d)     0.00126       1.43908
   525    O   12  dxz    Ryd( 4d)     0.00002       1.74001
   526    O   12  dxz    Ryd( 5d)     0.00001       6.39106
   527    O   12  dyz    Ryd( 3d)     0.00547       1.55313
   528    O   12  dyz    Ryd( 4d)     0.00003       1.80695
   529    O   12  dyz    Ryd( 5d)     0.00003       6.33503
   530    O   12  dx2y2  Ryd( 3d)     0.00676       1.89699
   531    O   12  dx2y2  Ryd( 4d)     0.00012       2.60092
   532    O   12  dx2y2  Ryd( 5d)     0.00003       6.48640
   533    O   12  dz2    Ryd( 3d)     0.00285       1.64870
   534    O   12  dz2    Ryd( 4d)     0.00008       2.46094
   535    O   12  dz2    Ryd( 5d)     0.00001       6.46694
   536    O   12  f(0)   Ryd( 4f)     0.00013       3.13153
   537    O   12  f(0)   Ryd( 5f)     0.00001       5.51904
   538    O   12  f(C1)  Ryd( 4f)     0.00005       3.22908
   539    O   12  f(C1)  Ryd( 5f)     0.00001       5.62066
   540    O   12  f(S1)  Ryd( 4f)     0.00010       3.74754
   541    O   12  f(S1)  Ryd( 5f)     0.00001       5.84647
   542    O   12  f(C2)  Ryd( 4f)     0.00015       3.13809
   543    O   12  f(C2)  Ryd( 5f)     0.00002       5.69070
   544    O   12  f(S2)  Ryd( 4f)     0.00018       3.13733
   545    O   12  f(S2)  Ryd( 5f)     0.00000       5.66827
   546    O   12  f(C3)  Ryd( 4f)     0.00039       4.12911
   547    O   12  f(C3)  Ryd( 5f)     0.00001       6.10926
   548    O   12  f(S3)  Ryd( 4f)     0.00040       3.65014
   549    O   12  f(S3)  Ryd( 5f)     0.00003       5.99792
 
   550    O   13  S      Cor( 1S)     1.99977     -19.45630
   551    O   13  S      Val( 2S)     1.66429      -1.01823
   552    O   13  S      Ryd( 3S)     0.00036       1.55210
   553    O   13  S      Ryd( 4S)     0.00023       2.14423
   554    O   13  S      Ryd( 5S)     0.00001       9.89557
   555    O   13  px     Val( 2p)     1.44302      -0.34995
   556    O   13  px     Ryd( 4p)     0.00080       1.26522
   557    O   13  px     Ryd( 3p)     0.00011       1.16639
   558    O   13  px     Ryd( 5p)     0.00003       4.96956
   559    O   13  py     Val( 2p)     1.73035      -0.39771
[...]
 94,0.04839027,0.00029691,-0.00030110,-0.12694272,0.00519165,-0.0015676
 1,0.70956122,-0.01686687,0.01528515,0.01523367,0.00007836,0.00066440,0
 .01043937,-0.00701660,0.00856640,-0.02812923,-0.16622141,0.05462245,-0
 .10794105,0.61998383,0.01538892,0.00249401,-0.00830195,0.00065746,0.00
 087068,-0.00591170,0.00848415,0.00411242,0.01547343,0.05477036,-0.0960
 0576,0.05869564,-0.27758784,0.26581272,0.06087367,-0.03332370,0.031420
 92,0.00705689,-0.00405838,-0.07851392,-0.06227649,0.03419264,0.0310185
 0,-0.04542183,0.02441968,-0.26785245,0.00939775,-0.00372560,0.71024130
 ,-0.25133497,0.10021443,0.03915315,-0.01372612,0.00632331,-0.09197714,
 -0.04524020,0.02555106,0.03105378,0.06539715,-0.03828120,0.03500465,-0
 .17931993,0.06089295,0.06111738,0.58293652,0.10009414,-0.12361753,-0.0
 2161774,0.00645786,-0.00521998,0.05053803,0.02555304,-0.01281074,-0.01
 707443,-0.03843281,0.01644435,-0.01934765,0.06105739,-0.10208435,-0.03
 393918,-0.22599043,0.29463972,-0.01302717,0.00699556,-0.13104903,-0.03
 317353,0.01830543,0.04628074,0.03028789,-0.01665398,-0.01973481,-0.029
 01438,0.01574853,-0.07081060,0.13215989,-0.07289015,-0.24924699,-0.005
 39509,0.00423265,0.70990782,-0.01918227,0.01488868,-0.04094631,-0.0022
 9034,0.00460344,0.00748537,0.00034275,-0.00100006,-0.00274877,-0.00171
 821,0.00512157,0.00197721,0.01587674,-0.00236325,0.00792928,-0.1234604
 7,0.04114213,-0.10571054,0.13603126,0.01494644,0.00001296,0.02242348,0
 .00459099,0.00354828,-0.00413098,-0.00100933,-0.00091288,0.00151016,0.
 00514378,0.00479210,-0.00109245,-0.00243616,0.01285591,-0.00453542,0.0
 4113685,-0.07037624,0.05736889,-0.06101513,0.05745826,-0.01843882,0.01
 008313,-0.00166813,0.00228119,-0.00128304,-0.00604171,-0.00672139,0.00
 368743,-0.00024058,0.01134960,-0.00622958,0.00428637,-0.02280857,0.012
 31765,-0.06819058,-0.10681638,0.05797873,-0.29566220,0.13371675,-0.072
 46615,0.37798673,-0.02168828,0.01575725,-0.01416170,-0.28419004,0.1298
 5502,-0.02065347,-0.04480746,0.03085954,0.00594070,0.00997867,-0.00079
 528,0.00578208,-0.00359143,0.00121041,-0.00441843,0.00010592,0.0031036
 6,0.00066774,-0.00148086,0.00084496,-0.00136979,0.35154200,0.01569339,
 -0.00148197,0.00774690,0.12985480,-0.11845864,0.01125398,0.03093784,-0
 .00552441,-0.00326267,-0.00082043,0.00894461,-0.00320972,0.00121908,-0
 .00202604,0.00243967,0.00311695,0.00405130,-0.00040271,0.00084215,-0.0
 0039306,0.00075189,-0.17970319,0.12223419,-0.03942840,0.02160729,0.002
 77874,-0.02195379,0.01195922,-0.07995276,0.03878611,-0.02126946,0.0098
 0212,-0.00366553,0.00197088,-0.00784601,-0.00091900,0.00051862,0.00489
 787,0.00607765,-0.00336696,-0.00928407,-0.00271622,0.00148923,0.000228
 43,0.01994193,-0.01077996,0.08927650,-0.00081806,-0.00029579,0.0093544
 2,0.00122170,0.00165732,-0.01356780,-0.03192840,0.02206159,0.05263901,
 -0.13255513,0.04548092,0.09035930,0.01500820,-0.00156867,-0.00020698,-
 0.00307771,0.00574063,-0.00263694,0.00109173,-0.00110131,-0.00022060,-
 0.00332431,0.00171887,0.00215925,0.41992009,-0.00030215,-0.00124602,-0
 .00515100,0.00167746,0.00340571,0.00744409,0.02199803,-0.00404462,-0.0
 2889251,0.04539734,-0.07499296,-0.05008874,-0.00152144,0.01298364,-0.0
 0005194,0.00572448,0.00427078,0.00144217,-0.00109980,-0.00031307,0.000
 11473,0.00171466,-0.00114203,-0.00118217,-0.19016386,0.17780648,0.0071
 2429,-0.00392846,-0.01061537,-0.00534567,0.00293756,0.00572254,0.02489
 799,-0.01368353,-0.00641957,0.05735437,-0.03200039,-0.27999038,0.01982
 975,-0.01103865,-0.05718516,-0.00968431,0.00530572,0.00606539,0.000427
 28,-0.00024012,-0.00343703,0.00059281,-0.00032357,0.00046269,-0.104330
 36,0.05803341,0.42011214,0.00256000,-0.00143633,-0.00323724,-0.0011095
 1,0.00178895,0.00145905,0.00516663,-0.00102446,-0.00138702,-0.02877010
 ,0.01323172,0.02178014,0.00384349,-0.00310740,-0.00732796,-0.00266993,
 0.00170254,0.00234300,-0.00053529,0.00025703,-0.00192429,0.00058480,-0
 .00057156,-0.00017337,-0.19907413,0.07565047,-0.00121914,0.50235948,-0
 .00142728,0.00074119,0.00177533,0.00178730,0.00116306,-0.00080520,-0.0
 0102045,0.00386673,0.00074117,0.01327510,-0.01202961,-0.01194179,-0.00
 308191,-0.00009416,0.00401199,0.00169767,-0.00050805,-0.00128366,0.000
 26128,-0.00019899,0.00105526,-0.00057061,-0.00014396,0.00009509,0.0755
 7730,-0.10246453,0.00060236,0.04428573,0.55896130,0.00014752,-0.000080
 21,0.00021880,0.00116955,-0.00064680,0.00000251,-0.00031732,0.00015579
 ,-0.00429816,0.03894823,-0.02135114,-0.00660121,0.00328612,-0.00180472
 ,-0.00345012,0.00064295,-0.00035202,0.00051237,-0.00010690,0.00005917,
 0.00018483,0.00019023,-0.00010401,-0.00037049,-0.02980491,0.01626813,-
 0.08837773,-0.01119593,0.00626371,0.63587641,-0.11993139,0.02406468,0.
 04516038,0.03090760,-0.01749157,-0.00100073,0.00230122,0.00172204,-0.0
 0646526,-0.00408456,0.00145369,0.00391570,-0.00301293,0.00468675,-0.00
 473420,-0.01679860,0.01017832,0.03022662,0.00232544,-0.00368767,-0.000
 55523,-0.01382441,0.00534168,0.00241788,0.00384192,-0.00215594,-0.0058
 3391,-0.00218288,0.00103895,0.00017582,0.56363995,0.02405670,-0.089463
 65,-0.02495557,-0.01749828,0.00858688,0.00045486,0.00171843,0.00453495
 ,0.00354045,0.00145552,-0.00225359,-0.00216901,0.00468492,0.00299386,0
 .00259966,0.01019789,-0.00398849,-0.01649931,-0.00370417,-0.00236375,0
 .00025189,0.00535178,-0.00702889,-0.00130487,-0.00215952,0.00112679,0.
 00322329,0.00104883,-0.00086349,-0.00009598,-0.18983492,0.31996851,0.0
 3235265,-0.01790465,-0.15960359,0.00032925,-0.00027218,-0.03671133,-0.
 00759752,0.00415540,0.00194271,0.00335456,-0.00185919,-0.01009290,-0.0
 0397850,0.00218178,0.00784805,0.03156072,-0.01723871,0.02575195,-0.007
 23421,0.00392759,-0.02098490,0.00795622,-0.00434088,0.00386455,-0.0069
 7609,0.00384887,0.01012947,0.00401346,-0.00219908,-0.00006231,0.123239
 73,-0.06493369,0.94510838,0.02218045,-0.00088971,0.00398505,-0.0053244
 4,0.00475332,0.00271471,0.00093217,-0.00125802,0.00068055,-0.00018241,
 0.00024708,-0.00054457,0.00061142,-0.00068933,0.00084279,-0.00456207,0
 .00164655,-0.00848022,-0.00675992,0.00494884,0.01184808,0.00332506,-0.
 00163897,-0.00116211,-0.00014474,0.00010378,0.00051110,0.00013037,-0.0
 0006073,-0.00003746,-0.18573257,0.05636699,-0.20323830,0.21412356,-0.0
 0093241,0.02104214,-0.00245502,0.00478104,0.00070644,-0.00148111,-0.00
 125561,-0.00067740,-0.00038399,0.00023726,0.00014121,0.00031167,-0.000
 68781,-0.00027626,-0.00046880,0.00161802,-0.00239772,0.00462588,0.0049
 4301,-0.00052744,-0.00647824,-0.00163940,0.00124196,0.00063198,0.00011
 442,-0.00002092,-0.00029482,-0.00006714,0.00005666,0.00002060,0.056365
 43,-0.11190826,0.10918533,-0.09826600,0.08624808,-0.00536319,0.0026406
 5,-0.06786604,0.01077010,-0.00590221,0.00577115,0.00217011,-0.00119191
 ,-0.00409313,-0.00366360,0.00201725,0.00426895,0.00081417,-0.00044812,
 -0.00237361,-0.01443440,0.00789833,-0.00855926,0.00838052,-0.00458933,
 0.00747525,-0.00229295,0.00125203,-0.00095686,0.00394327,-0.00217384,-
 0.00503840,-0.00216532,0.00118673,0.00003667,-0.20444278,0.10987302,-0
 .65005842,0.26654728,-0.14342482,0.73734132,-0.02631990,0.02053864,0.0
 1172017,-0.00944158,0.00491386,-0.00522482,-0.00061148,0.00016953,0.00
 140832,0.00062629,-0.00030642,-0.00377927,-0.00097323,0.00016404,0.002
 67464,0.00479708,-0.00165559,0.00153589,-0.00103650,0.00052938,0.00098
 094,0.00732011,-0.00310106,0.00260613,-0.00196363,0.00112235,0.0034644
 4,0.00117026,-0.00064199,-0.00008885,-0.23420711,0.09176343,-0.0221789
 9,-0.04386773,0.04121197,-0.05795283,0.38969753,0.02058977,-0.00021486
 ,-0.00644135,0.00493007,-0.00314443,0.00287098,0.00016655,-0.00040242,
 -0.00077268,-0.00029860,0.00025320,0.00207587,0.00016352,-0.00077853,-
 0.00146367,-0.00166605,0.00268183,-0.00087459,0.00052715,-0.00036843,-
 0.00052664,-0.00310123,0.00335464,-0.00146805,0.00111646,-0.00054831,-
 0.00190282,-0.00064322,0.00035232,0.00004871,0.09188548,-0.11692936,0.
 01197795,0.04116870,0.00928322,0.03159395,-0.19298118,0.14393431,0.034
 24561,-0.01879131,0.00261373,-0.00138168,0.00076366,0.00197559,0.00074
 922,-0.00041045,-0.00021924,-0.00053180,0.00029537,0.00159164,0.001973
 77,-0.00108011,0.00006713,-0.00251243,0.00134890,-0.01001793,0.0004819
 3,-0.00025442,0.00354967,0.00252040,-0.00141880,-0.01451372,0.00103412
 ,-0.00057052,-0.00140474,-0.00059347,0.00032526,-0.00000744,0.00981184
 ,-0.00556669,-0.12470413,-0.06860108,0.03744117,-0.00949733,-0.0922506
 8,0.05236184,0.59268353,-0.00019124,0.00271665,0.00248135,0.01004390,-
 0.00274505,0.01365306,-0.10061288,0.03786391,-0.10719748,-0.00535988,0
 .00504149,-0.02510454,-0.00316219,0.00411969,0.00068511,-0.00158368,0.
 00014696,0.00100073,0.00024755,-0.00012920,-0.00007226,-0.00026473,-0.
 00286367,-0.00084404,0.00150451,-0.00267925,-0.00010459,-0.00032638,-0
 .00019466,0.00017444,0.00100925,0.00007720,0.00015627,-0.00021531,-0.0
 0009658,0.00050765,-0.00017183,0.00003688,0.00003440,0.09894297,0.0027
 1984,0.00326050,-0.00137687,-0.00280809,0.00650075,-0.00753952,0.03786
 641,-0.05171592,0.05816785,0.00510030,0.00117819,0.01376213,0.00411803
 ,0.00209049,-0.00038270,0.00014667,-0.00140146,-0.00054628,-0.00012886
 ,0.00008295,0.00004107,-0.00286365,-0.00391320,0.00048144,-0.00267775,
 -0.00191358,0.00006423,-0.00019544,-0.00057487,-0.00009340,0.00007434,
 0.00110978,-0.00008816,-0.00009814,-0.00034238,-0.00027840,0.00003742,
 -0.00012575,-0.00001865,-0.04146684,0.04539977,0.00319805,-0.00176887,
 -0.00220388,-0.01292370,0.00703055,-0.01851432,-0.10684364,0.05797453,
 -0.28782058,0.00084730,-0.00046612,0.00327774,0.00027989,-0.00016169,0
 .00095932,0.00076309,-0.00041469,0.00016033,0.00003109,-0.00001640,0.0
 0027786,-0.00084001,0.00047928,0.00240773,0.00025981,-0.00013452,-0.00
 010795,-0.00010782,0.00006113,0.00020686,-0.00119573,0.00065346,0.0001
 0830,0.00023430,-0.00012991,-0.00065320,0.00027522,-0.00015081,0.00000
 510,0.11576926,-0.06281666,0.30173403,0.00114601,0.00179672,0.00257052
 ,0.00018840,-0.00076246,0.00001188,0.00162481,0.00183118,-0.00181289,-
 0.00515553,0.00412985,-0.00032706,-0.27593459,0.13539019,-0.02669762,-
 0.01072517,0.00838726,-0.00348161,0.00016473,-0.00291353,-0.00106746,0
 .00013999,-0.00014372,0.00003573,-0.00166863,-0.00077116,0.00078401,-0
 .00046918,0.00017675,0.00213248,0.00001566,0.00058619,-0.00082238,0.00
 008537,-0.00012121,0.00024847,-0.00019041,0.00001359,0.00027763,-0.000
 13658,0.00029229,0.00021675,0.29103137,0.00179418,0.00342512,-0.001428
 93,-0.00076194,-0.00078451,-0.00000873,0.00183230,0.00397005,0.0009700
 1,0.00407199,0.00014669,0.00018866,0.13538728,-0.10307270,0.01456153,0
 .00845207,-0.00004096,0.00191404,-0.00291295,-0.00354630,0.00060179,-0
 .00014413,-0.00004333,-0.00001845,-0.00076735,-0.00265833,-0.00041917,
 0.00017106,-0.00025156,-0.00117434,0.00059053,0.00076636,0.00045056,-0
 .00012232,-0.00007067,-0.00013639,0.00001352,-0.00017490,-0.00015317,0
 .00028892,0.00023694,-0.00011928,-0.14749409,0.10273282,0.00178888,-0.
 00100047,-0.00404404,0.00017933,-0.00010080,-0.00224979,-0.00153585,0.
 00081848,-0.00483892,-0.02397055,0.01315120,0.00630405,-0.02799058,0.0
 1527016,-0.06026046,0.02355281,-0.01290820,0.00666698,-0.00082710,0.00
 047039,0.00201180,-0.00015076,0.00008382,0.00033536,0.00222681,-0.0012
 0991,0.00134892,-0.00054481,0.00029356,-0.00238803,0.00083061,-0.00045
 462,0.00113104,-0.00014192,0.00007716,-0.00026484,0.00033649,-0.000185
 60,-0.00051432,-0.00115396,0.00063205,0.00017494,0.02589804,-0.0141107
 8,0.05867775,0.00001472,-0.00005143,0.00022602,-0.00011687,0.00010975,
 -0.00065159,-0.00050762,0.00040850,0.00160911,-0.00382799,0.00227052,-
 0.00259792,-0.00031446,0.00040049,-0.00071893,0.00020420,-0.00001260,0
 .00017658,0.00006236,-0.00000450,0.00015990,-0.00022254,0.00008664,0.0
 0015932,-0.01995540,0.01123865,0.03602313,-0.06050459,0.00464493,0.053
 19636,0.00013975,-0.00009510,-0.00023807,-0.00000193,0.00000427,0.0001
 4772,-0.00005752,0.00003236,0.00002921,-0.00000014,0.00000878,-0.00001
 841,0.00041068,-0.00048420,0.00000753,0.07682686,-0.00005142,-0.000052
 23,-0.00012392,0.00011090,0.00002601,0.00035650,0.00040437,0.00000671,
 -0.00088222,0.00227541,-0.00091479,0.00142671,0.00040170,0.00019961,0.
 00039193,-0.00001315,0.00018740,-0.00009602,-0.00000495,0.00005599,-0.
 00008806,0.00008656,-0.00011289,-0.00008708,0.01115545,-0.00576423,-0.
 01973474,0.00467573,-0.05488209,-0.02975574,-0.00009476,0.00001969,0.0
 0013121,0.00000388,0.00000266,-0.00008131,0.00003255,-0.00001650,-0.00
 001616,0.00000891,0.00001120,0.00001002,-0.00048316,-0.00020773,-0.000
 00280,-0.01615127,0.05659792,0.00017668,-0.00009693,-0.00012003,-0.000
 13610,0.00007430,-0.00008740,-0.00001287,0.00000678,0.00008077,-0.0013
 2510,0.00073002,0.00175901,-0.00024681,0.00013356,-0.00036958,0.000012
 44,-0.00000613,0.00043213,-0.00003177,0.00001704,-0.00011225,0.0001431
 8,-0.00007830,0.00002974,0.00064232,-0.00034399,0.00421488,0.06652710,
 -0.03706208,-0.31410635,-0.00012401,0.00006867,0.00024981,0.00002794,-
 0.00001571,-0.00012668,0.00010659,-0.00005859,-0.00005900,0.00001726,-
 0.00000955,-0.00001601,0.00038973,-0.00021236,0.00013806,-0.07071034,0
 .03940425,0.33104007,0.00027905,-0.00007785,0.00066427,0.00010254,-0.0
 0049704,-0.00099596,-0.00154676,0.00000946,0.00076325,0.00362379,0.000
 02204,-0.00570866,0.00093544,-0.00081276,0.00104741,-0.00070230,0.0000
 1502,0.00016764,0.00003428,0.00001625,0.00004086,-0.00013207,0.0001728
 3,0.00007058,-0.00999572,0.03900338,-0.01356672,-0.05477682,-0.0357646
 8,0.01866749,0.00022393,-0.00002646,-0.00029109,-0.00002475,-0.0000003
 9,0.00017598,-0.00011366,0.00005098,0.00005455,0.00018749,0.00012805,0
 .00003207,-0.00006553,0.00068939,0.00045664,0.00004572,-0.00667003,0.0
 0178094,0.06215486,-0.00002503,-0.00004802,-0.00049948,-0.00006845,0.0
 0021589,0.00071745,0.00089238,-0.00030925,-0.00079774,-0.00213855,0.00
 087615,0.00495459,0.00021911,-0.00008074,-0.00018755,-0.00011651,0.000
 15394,-0.00024478,-0.00004542,0.00005129,-0.00006430,-0.00006474,-0.00
 000467,-0.00009126,0.01342359,-0.01651850,0.00383666,-0.02940949,-0.25
 136220,0.10404342,-0.00020254,0.00008144,0.00032416,-0.00001081,0.0000
 1838,-0.00019445,0.00005475,-0.00002229,-0.00002260,-0.00017072,-0.000
 01840,-0.00000780,-0.00037815,-0.00034533,-0.00082580,-0.00061919,0.00
 633960,-0.00222084,0.02213669,0.27517820,-0.00068144,0.00037189,0.0000
 2711,0.00009585,0.00004292,0.00064174,0.00042214,0.00000097,-0.0002416
 2,-0.00038557,-0.00128225,0.00100821,-0.00077747,0.00019210,0.00033878
 ,0.00098771,-0.00006482,-0.00069876,-0.00003480,-0.00004512,0.00016705
 ,-0.00003119,-0.00001242,-0.00003604,-0.00323514,-0.00037583,0.0021139
 6,0.01537956,0.10738838,-0.10909046,0.00017047,-0.00017900,-0.00039181
 ,-0.00002397,0.00002197,0.00018720,-0.00013513,0.00008172,0.00006040,0
 .00000042,-0.00001172,-0.00000437,0.00019912,-0.00160694,-0.00111906,0
 .00413108,0.02742244,-0.01152985,-0.01457202,-0.11774141,0.11130766,0.
 00009374,-0.00014007,0.00077895,0.00043721,0.00014189,-0.00114093,-0.0
 0107365,0.00119597,0.00108019,0.00261901,-0.00279755,-0.00724111,0.000
 48296,-0.00006615,0.00072165,-0.00004630,0.00030094,0.00029439,0.00005
 973,-0.00002889,0.00007637,-0.00009027,-0.00003773,0.00011513,-0.03842
 954,-0.00474101,-0.01043789,-0.16521074,-0.10010695,-0.07719654,0.0002
 2598,-0.00020272,-0.00043026,0.00001158,0.00001320,0.00025882,-0.00009
 682,0.00006590,0.00004845,0.00006054,-0.00025157,0.00002459,-0.0004010
 6,-0.00059033,0.00094261,0.00778885,0.00432012,0.00277761,-0.00024208,
 -0.00346085,-0.00153377,0.19379105,-0.00019963,0.00013823,-0.00029119,
 -0.00028098,-0.00011964,0.00045696,0.00030975,-0.00078164,-0.00021266,
 -0.00060396,0.00188106,0.00214465,-0.00110511,0.00037136,-0.00077973,0
 .00043494,-0.00050360,-0.00001137,0.00003249,0.00002621,0.00000058,0.0
 0019928,-0.00004623,-0.00001074,0.02088283,0.01193417,0.00929578,-0.10
 648148,-0.14174068,-0.07139191,-0.00002373,0.00007893,0.00006917,0.000
 02218,-0.00001755,-0.00004297,0.00006122,-0.00003917,-0.00003357,0.000
 04708,0.00010846,-0.00002332,0.00047777,-0.00000304,0.00005439,-0.0017
 7976,-0.00150355,-0.00033823,-0.01838190,-0.01420971,-0.01419765,0.106
 39731,0.14442946,-0.00067969,0.00037453,0.00002654,0.00001669,-0.00010
 154,0.00064291,0.00022693,-0.00035679,-0.00024217,0.00087289,0.0010179
 6,0.00100998,-0.00057597,0.00055191,0.00033865,0.00058336,-0.00079938,
 -0.00069777,0.00001940,0.00005418,0.00016670,-0.00000691,0.00003302,-0
 .00003634,-0.00141922,0.00290202,0.00209178,-0.08176439,-0.07043213,-0
 .10827863,0.00024143,-0.00004880,-0.00039166,-0.00003102,0.00000927,0.
 00018694,-0.00014148,0.00007020,0.00006045,0.00000984,0.00000607,-0.00
 000439,0.00145928,0.00069362,-0.00112718,-0.02092358,-0.01827892,-0.01
 142850,0.01122178,0.00901379,0.00727426,0.09087331,0.07530853,0.110422
 75,-0.00333229,0.00421523,-0.00310297,-0.00052019,0.00006530,0.0002972
 7,0.00024700,-0.00024163,-0.00018594,-0.00020886,0.00014391,0.00040229
 ,-0.00040679,0.00002998,-0.00054413,-0.00019343,0.00056498,0.00205911,
 0.00022730,-0.00008882,-0.00045890,0.00061985,-0.00010390,-0.00150726,
 0.00034725,-0.00019597,-0.00048658,-0.00018546,0.00012425,0.00001672,-
 0.02485626,0.01621329,0.05002255,0.00541589,-0.00622208,-0.00364904,-0
 .08455986,0.03794288,0.11461000,0.00002863,-0.00000179,-0.00000213,-0.
 00006034,-0.00001392,0.00009578,0.00001591,-0.00000686,-0.00001478,0.0
 0001258,-0.00001606,0.00002413,0.00001982,-0.00000829,0.00001734,0.107
 38926,0.00421462,0.00206729,0.00169528,0.00006411,-0.00043903,-0.00016
 311,-0.00024149,-0.00006048,0.00010252,0.00014311,-0.00002717,-0.00022
 121,0.00003085,-0.00036617,0.00029958,0.00056005,0.00051981,-0.0011303
 2,-0.00008731,0.00011619,0.00025185,-0.00010091,0.00049262,0.00082525,
 -0.00019515,0.00009955,0.00026726,0.00012445,-0.00002709,-0.00000927,0
 .01608923,-0.00446771,-0.02741549,-0.00622729,-0.00250216,0.00200178,0
 .03807359,-0.03709456,-0.06419975,-0.00000173,0.00002652,0.00000111,-0
 .00001430,-0.00007861,-0.00005222,-0.00000684,0.00000723,0.00000812,-0
 .00001299,0.00000421,-0.00000520,-0.00001150,-0.00000306,-0.00001755,-
 0.05240051,0.04173261,-0.00172314,0.00093306,0.00202346,-0.00058427,0.
 00032062,-0.00017585,-0.00007798,0.00004356,0.00006183,0.00008198,-0.0
 0004600,-0.00034883,-0.00004721,0.00002784,0.00031235,0.00031003,-0.00
 017244,-0.00001631,-0.00009221,0.00005023,0.00000269,0.00018991,-0.000
 10757,-0.00108742,-0.00022027,0.00012156,0.00031457,0.00013844,-0.0000
 7604,-0.00000749,0.00816137,-0.00445774,0.00686679,-0.00513116,0.00280
 740,-0.00577971,0.15664322,-0.08723642,-0.44166940,-0.00001292,0.00000
 706,0.00001248,-0.00001464,0.00000835,0.00001773,-0.00000711,0.0000039
 1,0.00001120,-0.00000901,0.00000794,-0.00001439,-0.00001156,0.00000330
 ,-0.00001435,-0.15759347,0.08776139,0.43949064\\-0.00000890,-0.0000578
 3,0.00004677,-0.00003536,0.00001732,-0.00003108,-0.00000525,0.00000605
 ,-0.00000954,0.00001273,-0.00000876,0.00001719,0.00001549,-0.00000444,
 -0.00004393,-0.00001510,0.00000108,0.00002398,-0.00001659,0.00000470,0
 .00001096,0.00001002,-0.00001130,0.00001626,0.00001068,-0.00000349,-0.
 00000698,-0.00001410,0.00000603,0.00000804,0.00004375,0.00021088,-0.00
 005360,0.00002457,-0.00010193,0.00005334,-0.00003713,-0.00005258,-0.00
 004288,-0.00000127,0.00000179,-0.00000403,0.00000424,-0.00000105,0.000
 00778,0.00000316,-0.00000217,-0.00000423,0.00000014,-0.00000644,0.0000
 0449,0.00000567,0.00000383,0.00000395,0.00000325,-0.00000168,0.0000035
 0\\\@
 The archive entry for this job was punched.


 YE HAVE SOWN MUCH, AND BRING IN LITTLE.
 YE EAT, BUT YE HAVE NOT ENOUGH.
 YE DRINK, BUT YE ARE NOT FILLED WITH DRINK.
 YE CLOTHE YOU, BUT THERE IS NONE WARM.
 AND HE THAT EARNETH WAGES EARNETH WAGES TO PUT
 IT INTO A BAG WITH HOLES.
                                     HAGGAI I,6
 Job cpu time:       1 days  2 hours  5 minutes 36.5 seconds.
 Elapsed time:       0 days  1 hours 18 minutes 18.7 seconds.
 File lengths (MBytes):  RWF=    700 Int=      0 D2E=      0 Chk=     43 Scr=      1
 Normal termination of Gaussian 16 at Tue Mar  4 21:15:09 2025.
