 Entering Gaussian System, Link 0=g16
 Initial command:
 /usr/local/gaussian16c01/g16/l1.exe "/scr/dhuang/Gau-16528.inp" -scrdir="/scr/dhuang/"
 Entering Link 1 = /usr/local/gaussian16c01/g16/l1.exe PID=     16529.
  
 Copyright (c) 1988-2019, Gaussian, Inc.  All Rights Reserved.
  
 This is part of the Gaussian(R) 16 program.  It is based on
 the Gaussian(R) 09 system (copyright 2009, Gaussian, Inc.),
 the Gaussian(R) 03 system (copyright 2003, Gaussian, Inc.),
 the Gaussian(R) 98 system (copyright 1998, Gaussian, Inc.),
 the Gaussian(R) 94 system (copyright 1995, Gaussian, Inc.),
 the Gaussian 92(TM) system (copyright 1992, Gaussian, Inc.),
 the Gaussian 90(TM) system (copyright 1990, Gaussian, Inc.),
 the Gaussian 88(TM) system (copyright 1988, Gaussian, Inc.),
 the Gaussian 86(TM) system (copyright 1986, Carnegie Mellon
 University), and the Gaussian 82(TM) system (copyright 1983,
 Carnegie Mellon University). Gaussian is a federally registered
 trademark of Gaussian, Inc.
  
 This software contains proprietary and confidential information,
 including trade secrets, belonging to Gaussian, Inc.
  
 This software is provided under written license and may be
 used, copied, transmitted, or stored only in accord with that
 written license.
  
 The following legend is applicable only to US Government
 contracts under FAR:
  
                    RESTRICTED RIGHTS LEGEND
  
 Use, reproduction and disclosure by the US Government is
 subject to restrictions as set forth in subparagraphs (a)
 and (c) of the Commercial Computer Software - Restricted
 Rights clause in FAR 52.227-19.
  
 Gaussian, Inc.
 340 Quinnipiac St., Bldg. 40, Wallingford CT 06492
  
  
 ---------------------------------------------------------------
 Warning -- This program may not be used in any manner that
 competes with the business of Gaussian, Inc. or will provide
 assistance to any competitor of Gaussian, Inc.  The licensee
 of this program is prohibited from giving any competitor of
 Gaussian, Inc. access to this program.  By using this program,
 the user acknowledges that Gaussian, Inc. is engaged in the
 business of creating and licensing software in the field of
 computational chemistry and represents and warrants to the
 licensee that it is not a competitor of Gaussian, Inc. and that
 it will not use this program in any manner prohibited above.
 ---------------------------------------------------------------
  

 Cite this work as:
 Gaussian 16, Revision C.01,
 M. J. Frisch, G. W. Trucks, H. B. Schlegel, G. E. Scuseria, 
 M. A. Robb, J. R. Cheeseman, G. Scalmani, V. Barone, 
 G. A. Petersson, H. Nakatsuji, X. Li, M. Caricato, A. V. Marenich, 
 J. Bloino, B. G. Janesko, R. Gomperts, B. Mennucci, H. P. Hratchian, 
 J. V. Ortiz, A. F. Izmaylov, J. L. Sonnenberg, D. Williams-Young, 
 F. Ding, F. Lipparini, F. Egidi, J. Goings, B. Peng, A. Petrone, 
 T. Henderson, D. Ranasinghe, V. G. Zakrzewski, J. Gao, N. Rega, 
 G. Zheng, W. Liang, M. Hada, M. Ehara, K. Toyota, R. Fukuda, 
 J. Hasegawa, M. Ishida, T. Nakajima, Y. Honda, O. Kitao, H. Nakai, 
 T. Vreven, K. Throssell, J. A. Montgomery, Jr., J. E. Peralta, 
 F. Ogliaro, M. J. Bearpark, J. J. Heyd, E. N. Brothers, K. N. Kudin, 
 V. N. Staroverov, T. A. Keith, R. Kobayashi, J. Normand, 
 K. Raghavachari, A. P. Rendell, J. C. Burant, S. S. Iyengar, 
 J. Tomasi, M. Cossi, J. M. Millam, M. Klene, C. Adamo, R. Cammi, 
 J. W. Ochterski, R. L. Martin, K. Morokuma, O. Farkas, 
 J. B. Foresman, and D. J. Fox, Gaussian, Inc., Wallingford CT, 2019.
 
 ******************************************
 Gaussian 16:  ES64L-G16RevC.01  3-Jul-2019
                 4-Mar-2025 
 ******************************************
 %nprocshared=20
 Will use up to   20 processors via shared memory.
 %mem=10000MW
 %chk=26.chk
 ------------------------------------
 # opt freq m062x/aug-cc-pvtz pop=nbo
 ------------------------------------
 1/18=20,19=15,26=3,38=1/1,3;
 2/9=110,12=2,17=6,18=5,40=1/2;
 3/5=16,6=1,7=10,11=2,25=1,30=1,71=1,74=-55/1,2,3;
 4//1;
 5/5=2,38=5/2;
 6/7=2,8=2,9=2,10=2,28=1,40=1/1,7;
 7//1,2,3,16;
 1/18=20,19=15,26=3/3(2);
 2/9=110/2;
 99//99;
 2/9=110/2;
 3/5=16,6=1,7=10,11=2,25=1,30=1,71=1,74=-55/1,2,3;
 4/5=5,16=3,69=1/1;
 5/5=2,38=5/2;
 7//1,2,3,16;
 1/18=20,19=15,26=3/3(-5);
 2/9=110/2;
 6/7=2,8=2,9=2,10=2,19=2,28=1,40=1/1,7;
 99/9=1/99;
 --
 26
 --
 Symbolic Z-matrix:
 Charge =  0 Multiplicity = 1
 C                     1.23058   1.8752    1.77794 
 C                     2.16896   1.40655   2.65615 
 C                     1.6674    0.67175   3.68045 
 C                     0.37532   0.45154   3.97877 
 C                    -0.49656   1.06638   3.17119 
 C                    -0.0833    1.7472    2.09493 
 F                    -1.07541   2.20182   1.34047 
 N                     3.44477   1.59634   2.68503 
 C                     4.33129   0.97004   3.72011 
 C                     5.71532   1.58441   3.44808 
 C                     5.34554   2.9813    2.93863 
 C                     4.19788   2.66385   1.96157 
 O                     0.04779  -0.29316   5.08837 
 C                    -1.29932  -0.34677   5.49714 
 C                     1.5146    2.406     0.5417 
 O                     0.7095    3.01141  -0.14329 
 O                     2.7205    2.2288   -0.0417 
 H                     2.30485   0.19375   4.43874 
 H                    -1.5812    0.98305   3.34371 
 H                     4.38326  -0.14017   3.62815 
 H                     4.05049   1.29542   4.75166 
 H                     6.3715    1.60585   4.34772 
 H                     6.24216   1.01761   2.64333 
 H                     6.1994    3.50837   2.45494 
 H                     4.97672   3.60883   3.78514 
 H                     3.60881   3.59312   1.78441 
 H                     4.71014   2.26849   1.05222 
 H                    -1.34753  -0.95324   6.4293 
 H                    -1.67494   0.67557   5.72594 
 H                    -1.91893  -0.85304   4.72382 
 H                     2.69708   2.68415  -0.89767 
 

 GradGradGradGradGradGradGradGradGradGradGradGradGradGradGradGradGradGrad
 Berny optimization.
 Initialization pass.
                           ----------------------------
                           !    Initial Parameters    !
                           ! (Angstroms and Degrees)  !
 --------------------------                            --------------------------
 ! Name  Definition              Value          Derivative Info.                !
 --------------------------------------------------------------------------------
 ! R1    R(1,2)                  1.368          estimate D2E/DX2                !
 ! R2    R(1,6)                  1.3576         estimate D2E/DX2                !
 ! R3    R(1,15)                 1.375          estimate D2E/DX2                !
 ! R4    R(2,3)                  1.3567         estimate D2E/DX2                !
 ! R5    R(2,8)                  1.2902         estimate D2E/DX2                !
 ! R6    R(3,4)                  1.3442         estimate D2E/DX2                !
 ! R7    R(3,18)                 1.0999         estimate D2E/DX2                !
 ! R8    R(4,5)                  1.3381         estimate D2E/DX2                !
 ! R9    R(4,13)                 1.3759         estimate D2E/DX2                !
 ! R10   R(5,6)                  1.3389         estimate D2E/DX2                !
 ! R11   R(5,19)                 1.1014         estimate D2E/DX2                !
 ! R12   R(6,7)                  1.3267         estimate D2E/DX2                !
 ! R13   R(8,9)                  1.4999         estimate D2E/DX2                !
 ! R14   R(8,12)                 1.4934         estimate D2E/DX2                !
 ! R15   R(9,10)                 1.5385         estimate D2E/DX2                !
 ! R16   R(9,20)                 1.1152         estimate D2E/DX2                !
 ! R17   R(9,21)                 1.1175         estimate D2E/DX2                !
 ! R18   R(10,11)                1.5322         estimate D2E/DX2                !
 ! R19   R(10,22)                1.1137         estimate D2E/DX2                !
 ! R20   R(10,23)                1.1164         estimate D2E/DX2                !
 ! R21   R(11,12)                1.5403         estimate D2E/DX2                !
 ! R22   R(11,24)                1.1139         estimate D2E/DX2                !
 ! R23   R(11,25)                1.1164         estimate D2E/DX2                !
 ! R24   R(12,26)                1.1144         estimate D2E/DX2                !
 ! R25   R(12,27)                1.1161         estimate D2E/DX2                !
 ! R26   R(13,14)                1.4088         estimate D2E/DX2                !
 ! R27   R(14,28)                1.1131         estimate D2E/DX2                !
 ! R28   R(14,29)                1.1129         estimate D2E/DX2                !
 ! R29   R(14,30)                1.1128         estimate D2E/DX2                !
 ! R30   R(15,16)                1.2182         estimate D2E/DX2                !
 ! R31   R(15,17)                1.3513         estimate D2E/DX2                !
 ! R32   R(17,31)                0.9698         estimate D2E/DX2                !
 ! A1    A(2,1,6)              118.7936         estimate D2E/DX2                !
 ! A2    A(2,1,15)             124.5914         estimate D2E/DX2                !
 ! A3    A(6,1,15)             116.5014         estimate D2E/DX2                !
 ! A4    A(1,2,3)              114.6215         estimate D2E/DX2                !
 ! A5    A(1,2,8)              129.9624         estimate D2E/DX2                !
 ! A6    A(3,2,8)              115.3628         estimate D2E/DX2                !
 ! A7    A(2,3,4)              127.707          estimate D2E/DX2                !
 ! A8    A(2,3,18)             122.7934         estimate D2E/DX2                !
 ! A9    A(4,3,18)             109.4423         estimate D2E/DX2                !
 ! A10   A(3,4,5)              114.6516         estimate D2E/DX2                !
 ! A11   A(3,4,13)             119.7664         estimate D2E/DX2                !
 ! A12   A(5,4,13)             125.4736         estimate D2E/DX2                !
 ! A13   A(4,5,6)              121.1774         estimate D2E/DX2                !
 ! A14   A(4,5,19)             120.8217         estimate D2E/DX2                !
 ! A15   A(6,5,19)             117.9262         estimate D2E/DX2                !
 ! A16   A(1,6,5)              122.2995         estimate D2E/DX2                !
 ! A17   A(1,6,7)              123.96           estimate D2E/DX2                !
 ! A18   A(5,6,7)              113.6125         estimate D2E/DX2                !
 ! A19   A(2,8,9)              122.5823         estimate D2E/DX2                !
 ! A20   A(2,8,12)             126.3706         estimate D2E/DX2                !
 ! A21   A(9,8,12)             109.5569         estimate D2E/DX2                !
 ! A22   A(8,9,10)             104.0609         estimate D2E/DX2                !
 ! A23   A(8,9,20)             112.7268         estimate D2E/DX2                !
 ! A24   A(8,9,21)             111.5263         estimate D2E/DX2                !
 ! A25   A(10,9,20)            109.9401         estimate D2E/DX2                !
 ! A26   A(10,9,21)            105.8424         estimate D2E/DX2                !
 ! A27   A(20,9,21)            112.1899         estimate D2E/DX2                !
 ! A28   A(9,10,11)            101.8737         estimate D2E/DX2                !
 ! A29   A(9,10,22)            113.2588         estimate D2E/DX2                !
 ! A30   A(9,10,23)            110.4399         estimate D2E/DX2                !
 ! A31   A(11,10,22)           113.1553         estimate D2E/DX2                !
 ! A32   A(11,10,23)           109.6984         estimate D2E/DX2                !
 ! A33   A(22,10,23)           108.3008         estimate D2E/DX2                !
 ! A34   A(10,11,12)           101.7029         estimate D2E/DX2                !
 ! A35   A(10,11,24)           113.0024         estimate D2E/DX2                !
 ! A36   A(10,11,25)           109.8814         estimate D2E/DX2                !
 ! A37   A(12,11,24)           113.1543         estimate D2E/DX2                !
 ! A38   A(12,11,25)           110.5281         estimate D2E/DX2                !
 ! A39   A(24,11,25)           108.452          estimate D2E/DX2                !
 ! A40   A(8,12,11)            102.4609         estimate D2E/DX2                !
 ! A41   A(8,12,26)            113.986          estimate D2E/DX2                !
 ! A42   A(8,12,27)            111.8982         estimate D2E/DX2                !
 ! A43   A(11,12,26)           108.8341         estimate D2E/DX2                !
 ! A44   A(11,12,27)           104.3508         estimate D2E/DX2                !
 ! A45   A(26,12,27)           114.109          estimate D2E/DX2                !
 ! A46   A(4,13,14)            118.8313         estimate D2E/DX2                !
 ! A47   A(13,14,28)           107.7664         estimate D2E/DX2                !
 ! A48   A(13,14,29)           110.3299         estimate D2E/DX2                !
 ! A49   A(13,14,30)           110.3719         estimate D2E/DX2                !
 ! A50   A(28,14,29)           108.2821         estimate D2E/DX2                !
 ! A51   A(28,14,30)           108.058          estimate D2E/DX2                !
 ! A52   A(29,14,30)           111.8927         estimate D2E/DX2                !
 ! A53   A(1,15,16)            124.1176         estimate D2E/DX2                !
 ! A54   A(1,15,17)            121.4581         estimate D2E/DX2                !
 ! A55   A(16,15,17)           114.3435         estimate D2E/DX2                !
 ! A56   A(15,17,31)           107.3334         estimate D2E/DX2                !
 ! D1    D(6,1,2,3)              9.4858         estimate D2E/DX2                !
 ! D2    D(6,1,2,8)           -167.7018         estimate D2E/DX2                !
 ! D3    D(15,1,2,3)          -166.4974         estimate D2E/DX2                !
 ! D4    D(15,1,2,8)            16.3149         estimate D2E/DX2                !
 ! D5    D(2,1,6,5)             -6.5792         estimate D2E/DX2                !
 ! D6    D(2,1,6,7)            177.7996         estimate D2E/DX2                !
 ! D7    D(15,1,6,5)           169.7263         estimate D2E/DX2                !
 ! D8    D(15,1,6,7)            -5.8948         estimate D2E/DX2                !
 ! D9    D(2,1,15,16)         -167.8078         estimate D2E/DX2                !
 ! D10   D(2,1,15,17)           15.6499         estimate D2E/DX2                !
 ! D11   D(6,1,15,16)           16.1255         estimate D2E/DX2                !
 ! D12   D(6,1,15,17)         -160.4168         estimate D2E/DX2                !
 ! D13   D(1,2,3,4)             -5.7802         estimate D2E/DX2                !
 ! D14   D(1,2,3,18)           177.272          estimate D2E/DX2                !
 ! D15   D(8,2,3,4)            171.8345         estimate D2E/DX2                !
 ! D16   D(8,2,3,18)            -5.1132         estimate D2E/DX2                !
 ! D17   D(1,2,8,9)           -178.6158         estimate D2E/DX2                !
 ! D18   D(1,2,8,12)            16.7945         estimate D2E/DX2                !
 ! D19   D(3,2,8,9)              4.2136         estimate D2E/DX2                !
 ! D20   D(3,2,8,12)          -160.3761         estimate D2E/DX2                !
 ! D21   D(2,3,4,5)             -1.6242         estimate D2E/DX2                !
 ! D22   D(2,3,4,13)          -178.0433         estimate D2E/DX2                !
 ! D23   D(18,3,4,5)           175.6551         estimate D2E/DX2                !
 ! D24   D(18,3,4,13)           -0.7641         estimate D2E/DX2                !
 ! D25   D(3,4,5,6)              5.2657         estimate D2E/DX2                !
 ! D26   D(3,4,5,19)          -177.9436         estimate D2E/DX2                !
 ! D27   D(13,4,5,6)          -178.5514         estimate D2E/DX2                !
 ! D28   D(13,4,5,19)           -1.7607         estimate D2E/DX2                !
 ! D29   D(3,4,13,14)          170.6445         estimate D2E/DX2                !
 ! D30   D(5,4,13,14)           -5.3586         estimate D2E/DX2                !
 ! D31   D(4,5,6,1)             -1.3411         estimate D2E/DX2                !
 ! D32   D(4,5,6,7)            174.6958         estimate D2E/DX2                !
 ! D33   D(19,5,6,1)          -178.2219         estimate D2E/DX2                !
 ! D34   D(19,5,6,7)            -2.1851         estimate D2E/DX2                !
 ! D35   D(2,8,9,10)          -174.4458         estimate D2E/DX2                !
 ! D36   D(2,8,9,20)            66.4714         estimate D2E/DX2                !
 ! D37   D(2,8,9,21)           -60.7853         estimate D2E/DX2                !
 ! D38   D(12,8,9,10)           -7.5701         estimate D2E/DX2                !
 ! D39   D(12,8,9,20)         -126.6528         estimate D2E/DX2                !
 ! D40   D(12,8,9,21)          106.0904         estimate D2E/DX2                !
 ! D41   D(2,8,12,11)          146.2009         estimate D2E/DX2                !
 ! D42   D(2,8,12,26)           28.8016         estimate D2E/DX2                !
 ! D43   D(2,8,12,27)         -102.5513         estimate D2E/DX2                !
 ! D44   D(9,8,12,11)          -20.0532         estimate D2E/DX2                !
 ! D45   D(9,8,12,26)         -137.4525         estimate D2E/DX2                !
 ! D46   D(9,8,12,27)           91.1946         estimate D2E/DX2                !
 ! D47   D(8,9,10,11)           32.2531         estimate D2E/DX2                !
 ! D48   D(8,9,10,22)          154.1057         estimate D2E/DX2                !
 ! D49   D(8,9,10,23)          -84.2304         estimate D2E/DX2                !
 ! D50   D(20,9,10,11)         153.2193         estimate D2E/DX2                !
 ! D51   D(20,9,10,22)         -84.9281         estimate D2E/DX2                !
 ! D52   D(20,9,10,23)          36.7357         estimate D2E/DX2                !
 ! D53   D(21,9,10,11)         -85.4099         estimate D2E/DX2                !
 ! D54   D(21,9,10,22)          36.4428         estimate D2E/DX2                !
 ! D55   D(21,9,10,23)         158.1066         estimate D2E/DX2                !
 ! D56   D(9,10,11,12)         -44.6131         estimate D2E/DX2                !
 ! D57   D(9,10,11,24)        -166.2261         estimate D2E/DX2                !
 ! D58   D(9,10,11,25)          72.4978         estimate D2E/DX2                !
 ! D59   D(22,10,11,12)       -166.5371         estimate D2E/DX2                !
 ! D60   D(22,10,11,24)         71.8499         estimate D2E/DX2                !
 ! D61   D(22,10,11,25)        -49.4261         estimate D2E/DX2                !
 ! D62   D(23,10,11,12)         72.4078         estimate D2E/DX2                !
 ! D63   D(23,10,11,24)        -49.2051         estimate D2E/DX2                !
 ! D64   D(23,10,11,25)       -170.4812         estimate D2E/DX2                !
 ! D65   D(10,11,12,8)          39.7756         estimate D2E/DX2                !
 ! D66   D(10,11,12,26)        160.7896         estimate D2E/DX2                !
 ! D67   D(10,11,12,27)        -77.0191         estimate D2E/DX2                !
 ! D68   D(24,11,12,8)         161.2832         estimate D2E/DX2                !
 ! D69   D(24,11,12,26)        -77.7028         estimate D2E/DX2                !
 ! D70   D(24,11,12,27)         44.4885         estimate D2E/DX2                !
 ! D71   D(25,11,12,8)         -76.8658         estimate D2E/DX2                !
 ! D72   D(25,11,12,26)         44.1482         estimate D2E/DX2                !
 ! D73   D(25,11,12,27)        166.3396         estimate D2E/DX2                !
 ! D74   D(4,13,14,28)        -177.4002         estimate D2E/DX2                !
 ! D75   D(4,13,14,29)         -59.3656         estimate D2E/DX2                !
 ! D76   D(4,13,14,30)          64.8116         estimate D2E/DX2                !
 ! D77   D(1,15,17,31)         180.0            estimate D2E/DX2                !
 ! D78   D(16,15,17,31)          3.1416         estimate D2E/DX2                !
 --------------------------------------------------------------------------------
 Trust Radius=3.00D-01 FncErr=1.00D-07 GrdErr=1.00D-06 EigMax=2.50D+02 EigMin=1.00D-04
 Number of steps in this run=    176 maximum allowed number of steps=    186.
 GradGradGradGradGradGradGradGradGradGradGradGradGradGradGradGradGradGrad

                          Input orientation:                          
 ---------------------------------------------------------------------
 Center     Atomic      Atomic             Coordinates (Angstroms)
 Number     Number       Type             X           Y           Z
 ---------------------------------------------------------------------
      1          6           0        1.230576    1.875196    1.777939
      2          6           0        2.168965    1.406549    2.656154
      3          6           0        1.667405    0.671752    3.680447
      4          6           0        0.375322    0.451539    3.978774
      5          6           0       -0.496561    1.066385    3.171190
      6          6           0       -0.083299    1.747199    2.094930
      7          9           0       -1.075408    2.201818    1.340472
      8          7           0        3.444768    1.596345    2.685031
      9          6           0        4.331293    0.970040    3.720110
     10          6           0        5.715317    1.584409    3.448083
     11          6           0        5.345543    2.981301    2.938628
     12          6           0        4.197882    2.663852    1.961569
     13          8           0        0.047785   -0.293160    5.088369
     14          6           0       -1.299316   -0.346773    5.497136
     15          6           0        1.514600    2.406000    0.541700
     16          8           0        0.709502    3.011407   -0.143293
     17          8           0        2.720500    2.228800   -0.041700
     18          1           0        2.304849    0.193748    4.438744
     19          1           0       -1.581200    0.983050    3.343707
     20          1           0        4.383259   -0.140167    3.628153
     21          1           0        4.050487    1.295419    4.751663
     22          1           0        6.371502    1.605852    4.347725
     23          1           0        6.242155    1.017607    2.643330
     24          1           0        6.199399    3.508368    2.454939
     25          1           0        4.976722    3.608835    3.785138
     26          1           0        3.608814    3.593120    1.784408
     27          1           0        4.710143    2.268488    1.052218
     28          1           0       -1.347527   -0.953236    6.429296
     29          1           0       -1.674940    0.675569    5.725944
     30          1           0       -1.918928   -0.853038    4.723815
     31          1           0        2.697078    2.684145   -0.897673
 ---------------------------------------------------------------------
                    Distance matrix (angstroms):
                    1          2          3          4          5
     1  C    0.000000
     2  C    1.368015   0.000000
     3  C    2.293171   1.356711   0.000000
     4  C    2.757160   2.424566   1.344236   0.000000
     5  C    2.361847   2.736055   2.257836   1.338060   0.000000
     6  C    1.357620   2.345998   2.595268   2.331938   1.338891
     7  F    2.369730   3.590185   3.916581   3.482632   2.230650
     8  N    2.408987   1.290167   2.237128   3.522193   4.006404
     9  C    3.769056   2.449123   2.680830   3.998182   4.859914
    10  C    4.794459   3.638049   4.156023   5.484576   6.239587
    11  C    4.416290   3.556724   4.406020   5.673156   6.152330
    12  C    3.075809   2.485913   3.650523   4.855451   5.104202
    13  O    4.130339   3.647476   2.352969   1.375884   2.412519
    14  C    5.016964   4.813968   3.624801   2.397319   2.837509
    15  C    1.375031   2.428582   3.589248   4.114772   3.571212
    16  O    2.292079   3.541539   4.583945   4.863747   4.027840
    17  O    2.378234   2.873796   4.169867   4.982241   4.692904
    18  H    3.325840   2.160319   1.099926   2.000276   3.196261
    19  H    3.339707   3.836120   3.280813   2.124569   1.101431
    20  H    4.174253   2.870577   2.835103   4.066523   5.047496
    21  H    4.138970   2.818445   2.686177   3.849199   4.819335
    22  H    5.753735   4.534584   4.842142   6.117413   6.988959
    23  H    5.157547   4.091738   4.703570   6.043474   6.759534
    24  H    5.273972   4.550003   5.485183   6.751751   7.163251
    25  H    4.589985   3.742748   4.425946   5.583806   6.066119
    26  H    2.933824   2.759384   3.987283   5.014005   5.016140
    27  H    3.576135   3.126202   4.326131   5.536850   5.748466
    28  H    6.023435   5.671940   4.391648   3.308574   3.926610
    29  H    5.046569   4.973282   3.918589   2.703029   2.840436
    30  H    5.103021   5.108016   4.034277   2.742370   2.849204
    31  H    3.156569   3.813246   5.105794   5.844212   5.419605
                    6          7          8          9         10
     6  C    0.000000
     7  F    1.326712   0.000000
     8  N    3.580256   4.754622   0.000000
     9  C    4.767998   6.034266   1.499857   0.000000
    10  C    5.956632   7.137028   2.395367   1.538496   0.000000
    11  C    5.630911   6.662605   2.365452   2.384237   1.532183
    12  C    4.380245   5.329805   1.493369   2.445253   2.382756
    13  O    3.625041   4.640389   4.570092   4.670786   6.191665
    14  C    4.175934   4.880913   5.847219   6.049428   7.558648
    15  C    2.323752   2.718063   2.995824   4.483082   5.173789
    16  O    2.690055   2.458231   4.181327   5.675423   6.323961
    17  O    3.557867   4.039808   2.891302   4.281395   4.643571
    18  H    3.689163   5.005774   2.518372   2.285944   3.814006
    19  H    2.094535   2.398786   5.105912   5.924477   7.322001
    20  H    5.085574   6.365172   2.187628   1.115220   2.186542
    21  H    4.934625   6.223551   2.174493   1.117509   2.134127
    22  H    6.838093   8.053274   3.366068   2.227243   1.113730
    23  H    6.390964   7.526389   2.856931   2.193881   1.116445
    24  H    6.534800   7.474752   3.361067   3.396113   2.218623
    25  H    5.650336   6.677152   2.758122   2.717360   2.181153
    26  H    4.139510   4.906601   2.196621   3.339081   3.352624
    27  H    4.933161   5.793111   2.172333   2.991177   2.686727
    28  H    5.260927   5.993709   6.594389   6.579337   8.075335
    29  H    4.106820   4.682012   6.025477   6.339157   7.786561
    30  H    4.128173   4.635805   6.239018   6.587587   8.114823
    31  H    4.190947   4.412888   3.818130   5.189675   5.404145
                   11         12         13         14         15
    11  C    0.000000
    12  C    1.540306   0.000000
    13  O    6.588605   5.978637   0.000000
    14  C    7.859783   7.196060   1.408775   0.000000
    15  C    4.555476   3.046723   5.487185   6.328683   0.000000
    16  O    5.567047   4.089013   6.223207   6.864923   1.218160
    17  O    4.042210   2.526859   6.310411   7.312401   1.351277
    18  H    4.389376   3.977610   2.398631   3.795045   4.550330
    19  H    7.220586   6.175208   2.706686   2.546595   4.411350
    20  H    3.338412   3.267168   4.577332   5.985603   4.923247
    21  H    2.794005   3.111102   4.319557   5.645611   5.038641
    22  H    2.220362   3.396723   6.644110   7.998459   6.222183
    23  H    2.178810   2.711821   6.787234   8.177991   5.356703
    24  H    1.113923   2.227710   7.696032   8.963694   5.179096
    25  H    1.116426   2.196586   6.420155   7.613568   4.894179
    26  H    2.173194   1.114417   6.220953   7.307315   2.709116
    27  H    2.114327   1.116084   6.677584   7.918995   3.238987
    28  H    8.512492   7.987207   2.044672   1.113123   7.357991
    29  H    7.897639   7.253538   2.076709   1.112938   6.328028
    30  H    8.406045   7.577195   2.077096   1.112766   6.316687
    31  H    4.671175   3.229255   7.191369   8.127190   1.883457
                   16         17         18         19         20
    16  O    0.000000
    17  O    2.160302   0.000000
    18  H    5.610650   4.938479   0.000000
    19  H    4.639043   5.614045   4.113816   0.000000
    20  H    6.136180   4.673820   2.255735   6.075960   0.000000
    21  H    6.169877   5.061264   2.087786   5.813417   1.853083
    22  H    7.362273   5.743251   4.305809   8.039988   2.742167
    23  H    6.507745   4.591125   4.405069   7.854719   2.401211
    24  H    6.093992   4.469143   5.485408   8.228297   4.241061
    25  H    5.830836   4.651852   4.385079   7.077849   3.798928
    26  H    3.529933   2.446455   4.505725   6.014992   4.235161
    27  H    4.241026   2.270884   4.643118   6.817938   3.541739
    28  H    7.946615   8.279371   4.314826   3.650297   6.430349
    29  H    6.752010   7.416072   4.210434   2.403826   6.462810
    30  H    6.747690   7.330222   4.360886   2.321633   6.436321
    31  H    2.150964   0.969834   5.901971   6.259927   5.594912
                   21         22         23         24         25
    21  H    0.000000
    22  H    2.376267   0.000000
    23  H    3.053794   1.807685   0.000000
    24  H    3.845765   2.689205   2.498241   0.000000
    25  H    2.672821   2.504766   3.101533   1.809548   0.000000
    26  H    3.778771   4.260548   3.782261   2.677298   2.423704
    27  H    3.881740   3.749609   2.538386   2.392239   3.055560
    28  H    6.083540   8.394360   8.707528   9.625877   8.234087
    29  H    5.840715   8.216455   8.502934   8.984955   7.524319
    30  H    6.344333   8.655566   8.627341   9.490885   8.266766
    31  H    5.972878   6.494483   5.280495   4.917886   5.289664
                   26         27         28         29         30
    26  H    0.000000
    27  H    1.871811   0.000000
    28  H    8.173718   8.717101   0.000000
    29  H    7.208735   8.071579   1.804137   0.000000
    30  H    7.678827   8.195678   1.801445   1.844026   0.000000
    31  H    2.975072   2.833245   9.125450   8.186648   8.088282
                   31
    31  H    0.000000
 Stoichiometry    C12H14FNO3
 Framework group  C1[X(C12H14FNO3)]
 Deg. of freedom    87
 Full point group                 C1      NOp   1
 Largest Abelian subgroup         C1      NOp   1
 Largest concise Abelian subgroup C1      NOp   1
                         Standard orientation:                         
 ---------------------------------------------------------------------
 Center     Atomic      Atomic             Coordinates (Angstroms)
 Number     Number       Type             X           Y           Z
 ---------------------------------------------------------------------
      1          6           0       -0.195284    1.066682   -0.032726
      2          6           0        0.267840   -0.214514   -0.157295
      3          6           0       -0.701334   -1.159787   -0.245768
      4          6           0       -2.028798   -0.990700   -0.118406
      5          6           0       -2.407843    0.262516    0.157603
      6          6           0       -1.520345    1.264576    0.186785
      7          9           0       -2.071949    2.457972    0.364842
      8          7           0        1.477851   -0.662170   -0.154823
      9          6           0        1.801769   -2.115418   -0.335712
     10          6           0        3.323294   -2.188904   -0.119992
     11          6           0        3.550025   -1.075913    0.908321
     12          6           0        2.689547    0.063439    0.330393
     13          8           0       -2.866884   -2.078866   -0.199409
     14          6           0       -4.226186   -1.915664    0.132724
     15          6           0        0.575425    2.194265   -0.191701
     16          8           0        0.219315    3.315457    0.124574
     17          8           0        1.787069    2.142033   -0.787637
     18          1           0       -0.480712   -2.227208   -0.393329
     19          1           0       -3.469550    0.508992    0.316280
     20          1           0        1.543354   -2.491001   -1.353491
     21          1           0        1.348547   -2.740222    0.472395
     22          1           0        3.669934   -3.187223    0.231567
     23          1           0        3.863475   -1.943265   -1.065675
     24          1           0        4.623275   -0.800019    1.021644
     25          1           0        3.159930   -1.394375    1.904721
     26          1           0        2.481797    0.802615    1.138097
     27          1           0        3.297628    0.468777   -0.513160
     28          1           0       -4.717910   -2.910853    0.049964
     29          1           0       -4.327829   -1.562299    1.183167
     30          1           0       -4.720628   -1.225711   -0.586818
     31          1           0        2.146606    3.042756   -0.790756
 ---------------------------------------------------------------------
 Rotational constants (GHZ):           0.6114354           0.3947143           0.2496179
 Standard basis: Aug-CC-pVTZ (5D, 7F)
 There are  1285 symmetry adapted cartesian basis functions of A   symmetry.
 There are  1104 symmetry adapted basis functions of A   symmetry.
  1104 basis functions,  1602 primitive gaussians,  1285 cartesian basis functions
    63 alpha electrons       63 beta electrons
       nuclear repulsion energy      1273.7410821381 Hartrees.
 NAtoms=   31 NActive=   31 NUniq=   31 SFac= 1.00D+00 NAtFMM=   60 NAOKFM=F Big=F
 Integral buffers will be    131072 words long.
 Raffenetti 2 integral format.
 Two-electron integral symmetry is turned on.
 One-electron integrals computed using PRISM.
 NBasis=  1104 RedAO= T EigKep=  1.05D-06  NBF=  1104
 NBsUse=  1099 1.00D-06 EigRej=  9.78D-07 NBFU=  1099
 ExpMin= 2.53D-02 ExpMax= 1.95D+04 ExpMxC= 6.65D+02 IAcc=3 IRadAn=         5 AccDes= 0.00D+00
 Harris functional with IExCor= 1009 and IRadAn=       5 diagonalized for initial guess.
 HarFok:  IExCor= 1009 AccDes= 0.00D+00 IRadAn=         5 IDoV= 1 UseB2=F ITyADJ=14
 ICtDFT=  3500011 ScaDFX=  1.000000  1.000000  1.000000  1.000000
 FoFCou: FMM=F IPFlag=           0 FMFlag=      100000 FMFlg1=           0
         NFxFlg=           0 DoJE=T BraDBF=F KetDBF=T FulRan=T
         wScrn=  0.000000 ICntrl=       500 IOpCl=  0 I1Cent=   200000004 NGrid=           0
         NMat0=    1 NMatS0=      1 NMatT0=    0 NMatD0=    1 NMtDS0=    0 NMtDT0=    0
 Petite list used in FoFCou.
 Requested convergence on RMS density matrix=1.00D-08 within 128 cycles.
 Requested convergence on MAX density matrix=1.00D-06.
 Requested convergence on             energy=1.00D-06.
 No special actions if energy rises.
 SCF Done:  E(RM062X) =  -845.904817474     A.U. after   14 cycles
            NFock= 14  Conv=0.50D-08     -V/T= 2.0042

 **********************************************************************

            Population analysis using the SCF Density.

 **********************************************************************

 Orbital symmetries:
       Occupied  (A) (A) (A) (A) (A) (A) (A) (A) (A) (A) (A) (A)
                 (A) (A) (A) (A) (A) (A) (A) (A) (A) (A) (A) (A)
                 (A) (A) (A) (A) (A) (A) (A) (A) (A) (A) (A) (A)
                 (A) (A) (A) (A) (A) (A) (A) (A) (A) (A) (A) (A)
                 (A) (A) (A) (A) (A) (A) (A) (A) (A) (A) (A) (A)
                 (A) (A) (A)
       Virtual   (A) (A) (A) (A) (A) (A) (A) (A) (A) (A) (A) (A)
                 (A) (A) (A) (A) (A) (A) (A) (A) (A) (A) (A) (A)
                 (A) (A) (A) (A) (A) (A) (A) (A) (A) (A) (A) (A)
                 (A) (A) (A) (A) (A) (A) (A) (A) (A) (A) (A) (A)
                 (A) (A) (A) (A) (A) (A) (A) (A) (A) (A) (A) (A)
                 (A) (A) (A) (A) (A) (A) (A) (A) (A) (A) (A) (A)
                 (A) (A) (A) (A) (A) (A) (A) (A) (A) (A) (A) (A)
                 (A) (A) (A) (A) (A) (A) (A) (A) (A) (A) (A) (A)
                 (A) (A) (A) (A) (A) (A) (A) (A) (A) (A) (A) (A)
                 (A) (A) (A) (A) (A) (A) (A) (A) (A) (A) (A) (A)
                 (A) (A) (A) (A) (A) (A) (A) (A) (A) (A) (A) (A)
                 (A) (A) (A) (A) (A) (A) (A) (A) (A) (A) (A) (A)
                 (A) (A) (A) (A) (A) (A) (A) (A) (A) (A) (A) (A)
                 (A) (A) (A) (A) (A) (A) (A) (A) (A) (A) (A) (A)
                 (A) (A) (A) (A) (A) (A) (A) (A) (A) (A) (A) (A)
                 (A) (A) (A) (A) (A) (A) (A) (A) (A) (A) (A) (A)
                 (A) (A) (A) (A) (A) (A) (A) (A) (A) (A) (A) (A)
                 (A) (A) (A) (A) (A) (A) (A) (A) (A) (A) (A) (A)
                 (A) (A) (A) (A) (A) (A) (A) (A) (A) (A) (A) (A)
                 (A) (A) (A) (A) (A) (A) (A) (A) (A) (A) (A) (A)
                 (A) (A) (A) (A) (A) (A) (A) (A) (A) (A) (A) (A)
                 (A) (A) (A) (A) (A) (A) (A) (A) (A) (A) (A) (A)
                 (A) (A) (A) (A) (A) (A) (A) (A) (A) (A) (A) (A)
                 (A) (A) (A) (A) (A) (A) (A) (A) (A) (A) (A) (A)
                 (A) (A) (A) (A) (A) (A) (A) (A) (A) (A) (A) (A)
                 (A) (A) (A) (A) (A) (A) (A) (A) (A) (A) (A) (A)
                 (A) (A) (A) (A) (A) (A) (A) (A) (A) (A) (A) (A)
                 (A) (A) (A) (A) (A) (A) (A) (A) (A) (A) (A) (A)
                 (A) (A) (A) (A) (A) (A) (A) (A) (A) (A) (A) (A)
                 (A) (A) (A) (A) (A) (A) (A) (A) (A) (A) (A) (A)
                 (A) (A) (A) (A) (A) (A) (A) (A) (A) (A) (A) (A)
                 (A) (A) (A) (A) (A) (A) (A) (A) (A) (A) (A) (A)
                 (A) (A) (A) (A) (A) (A) (A) (A) (A) (A) (A) (A)
                 (A) (A) (A) (A) (A) (A) (A) (A) (A) (A) (A) (A)
                 (A) (A) (A) (A) (A) (A) (A) (A) (A) (A) (A) (A)
                 (A) (A) (A) (A) (A) (A) (A) (A) (A) (A) (A) (A)
                 (A) (A) (A) (A) (A) (A) (A) (A) (A) (A) (A) (A)
                 (A) (A) (A) (A) (A) (A) (A) (A) (A) (A) (A) (A)
                 (A) (A) (A) (A) (A) (A) (A) (A) (A) (A) (A) (A)
                 (A) (A) (A) (A) (A) (A) (A) (A) (A) (A) (A) (A)
                 (A) (A) (A) (A) (A) (A) (A) (A) (A) (A) (A) (A)
                 (A) (A) (A) (A) (A) (A) (A) (A) (A) (A) (A) (A)
                 (A) (A) (A) (A) (A) (A) (A) (A) (A) (A) (A) (A)
                 (A) (A) (A) (A) (A) (A) (A) (A) (A) (A) (A) (A)
                 (A) (A) (A) (A) (A) (A) (A) (A) (A) (A) (A) (A)
                 (A) (A) (A) (A) (A) (A) (A) (A) (A) (A) (A) (A)
                 (A) (A) (A) (A) (A) (A) (A) (A) (A) (A) (A) (A)
                 (A) (A) (A) (A) (A) (A) (A) (A) (A) (A) (A) (A)
                 (A) (A) (A) (A) (A) (A) (A) (A) (A) (A) (A) (A)
                 (A) (A) (A) (A) (A) (A) (A) (A) (A) (A) (A) (A)
                 (A) (A) (A) (A) (A) (A) (A) (A) (A) (A) (A) (A)
                 (A) (A) (A) (A) (A) (A) (A) (A) (A) (A) (A) (A)
                 (A) (A) (A) (A) (A) (A) (A) (A) (A) (A) (A) (A)
                 (A) (A) (A) (A) (A) (A) (A) (A) (A) (A) (A) (A)
                 (A) (A) (A) (A) (A) (A) (A) (A) (A) (A) (A) (A)
                 (A) (A) (A) (A) (A) (A) (A) (A) (A) (A) (A) (A)
                 (A) (A) (A) (A) (A) (A) (A) (A) (A) (A) (A) (A)
                 (A) (A) (A) (A) (A) (A) (A) (A) (A) (A) (A) (A)
                 (A) (A) (A) (A) (A) (A) (A) (A) (A) (A) (A) (A)
                 (A) (A) (A) (A) (A) (A) (A) (A) (A) (A) (A) (A)
                 (A) (A) (A) (A) (A) (A) (A) (A) (A) (A) (A) (A)
                 (A) (A) (A) (A) (A) (A) (A) (A) (A) (A) (A) (A)
                 (A) (A) (A) (A) (A) (A) (A) (A) (A) (A) (A) (A)
                 (A) (A) (A) (A) (A) (A) (A) (A) (A) (A) (A) (A)
                 (A) (A) (A) (A) (A) (A) (A) (A) (A) (A) (A) (A)
                 (A) (A) (A) (A) (A) (A) (A) (A) (A) (A) (A) (A)
                 (A) (A) (A) (A) (A) (A) (A) (A) (A) (A) (A) (A)
                 (A) (A) (A) (A) (A) (A) (A) (A) (A) (A) (A) (A)
                 (A) (A) (A) (A) (A) (A) (A) (A) (A) (A) (A) (A)
                 (A) (A) (A) (A) (A) (A) (A) (A) (A) (A) (A) (A)
                 (A) (A) (A) (A) (A) (A) (A) (A) (A) (A) (A) (A)
                 (A) (A) (A) (A) (A) (A) (A) (A) (A) (A) (A) (A)
                 (A) (A) (A) (A) (A) (A) (A) (A) (A) (A) (A) (A)
                 (A) (A) (A) (A) (A) (A) (A) (A) (A) (A) (A) (A)
                 (A) (A) (A) (A) (A) (A) (A) (A) (A) (A) (A) (A)
                 (A) (A) (A) (A) (A) (A) (A) (A) (A) (A) (A) (A)
                 (A) (A) (A) (A) (A) (A) (A) (A) (A) (A) (A) (A)
                 (A) (A) (A) (A) (A) (A) (A) (A) (A) (A) (A) (A)
                 (A) (A) (A) (A) (A) (A) (A) (A) (A) (A) (A) (A)
                 (A) (A) (A) (A) (A) (A) (A) (A) (A) (A) (A) (A)
                 (A) (A) (A) (A) (A) (A) (A) (A) (A) (A) (A) (A)
                 (A) (A) (A) (A) (A) (A) (A) (A) (A) (A) (A) (A)
                 (A) (A) (A) (A) (A) (A) (A) (A) (A) (A) (A) (A)
                 (A) (A) (A) (A) (A) (A) (A) (A) (A) (A) (A) (A)
                 (A) (A) (A) (A) (A) (A) (A) (A) (A) (A) (A) (A)
                 (A) (A) (A) (A) (A) (A) (A) (A) (A) (A) (A) (A)
                 (A) (A) (A) (A)
 The electronic state is 1-A.
 Alpha  occ. eigenvalues --  -25.24812 -19.66603 -19.65245 -19.58363 -14.78447
 Alpha  occ. eigenvalues --  -10.65757 -10.63050 -10.60635 -10.60333 -10.59484
 Alpha  occ. eigenvalues --  -10.59333 -10.58524 -10.55630 -10.55189 -10.54162
 Alpha  occ. eigenvalues --  -10.52438 -10.51927  -1.37434  -1.22696  -1.19919
 Alpha  occ. eigenvalues --   -1.11148  -1.09914  -0.99598  -0.92337  -0.89717
 Alpha  occ. eigenvalues --   -0.84579  -0.83841  -0.80778  -0.75207  -0.74308
 Alpha  occ. eigenvalues --   -0.70051  -0.67763  -0.67570  -0.63727  -0.61400
 Alpha  occ. eigenvalues --   -0.59923  -0.59385  -0.58411  -0.57599  -0.57217
 Alpha  occ. eigenvalues --   -0.55792  -0.55665  -0.52666  -0.51807  -0.51704
 Alpha  occ. eigenvalues --   -0.50811  -0.50025  -0.48369  -0.47877  -0.46501
 Alpha  occ. eigenvalues --   -0.45152  -0.44447  -0.43832  -0.41801  -0.41263
 Alpha  occ. eigenvalues --   -0.40781  -0.40326  -0.39869  -0.37815  -0.35863
 Alpha  occ. eigenvalues --   -0.33322  -0.29762  -0.25855
 Alpha virt. eigenvalues --   -0.01368  -0.00573  -0.00393   0.00043   0.00270
 Alpha virt. eigenvalues --    0.00895   0.01540   0.01762   0.02023   0.02577
 Alpha virt. eigenvalues --    0.03007   0.03346   0.03662   0.04109   0.04285
 Alpha virt. eigenvalues --    0.04933   0.05428   0.05933   0.06345   0.06490
 Alpha virt. eigenvalues --    0.06867   0.07156   0.07320   0.07810   0.08085
 Alpha virt. eigenvalues --    0.08122   0.08368   0.08421   0.08903   0.08955
 Alpha virt. eigenvalues --    0.09246   0.09855   0.10262   0.10369   0.10516
 Alpha virt. eigenvalues --    0.10736   0.10867   0.11124   0.11387   0.11729
 Alpha virt. eigenvalues --    0.12021   0.12235   0.12524   0.12604   0.13168
 Alpha virt. eigenvalues --    0.13534   0.13891   0.14205   0.14410   0.14951
 Alpha virt. eigenvalues --    0.15072   0.15206   0.15801   0.16179   0.16467
 Alpha virt. eigenvalues --    0.16695   0.16986   0.17298   0.17812   0.18087
 Alpha virt. eigenvalues --    0.18165   0.18639   0.18878   0.19264   0.19908
 Alpha virt. eigenvalues --    0.20054   0.20372   0.20733   0.20849   0.21167
 Alpha virt. eigenvalues --    0.21415   0.21638   0.21944   0.22058   0.22730
 Alpha virt. eigenvalues --    0.22955   0.23198   0.23760   0.23867   0.24087
 Alpha virt. eigenvalues --    0.24305   0.25076   0.25137   0.25286   0.25434
 Alpha virt. eigenvalues --    0.25809   0.26145   0.26259   0.26450   0.26874
 Alpha virt. eigenvalues --    0.27194   0.27323   0.27742   0.27915   0.28187
 Alpha virt. eigenvalues --    0.28367   0.28654   0.28990   0.29388   0.30012
 Alpha virt. eigenvalues --    0.30194   0.30404   0.30805   0.30903   0.30959
 Alpha virt. eigenvalues --    0.31557   0.31946   0.32130   0.32447   0.32582
 Alpha virt. eigenvalues --    0.33033   0.33261   0.33741   0.34184   0.34347
 Alpha virt. eigenvalues --    0.34441   0.34707   0.35106   0.35433   0.35823
 Alpha virt. eigenvalues --    0.35971   0.36365   0.36638   0.36904   0.37082
 Alpha virt. eigenvalues --    0.37416   0.37727   0.38170   0.38490   0.38805
 Alpha virt. eigenvalues --    0.38851   0.39180   0.39565   0.39797   0.39991
 Alpha virt. eigenvalues --    0.40180   0.40636   0.40695   0.40827   0.41150
 Alpha virt. eigenvalues --    0.41386   0.41746   0.41943   0.42191   0.42643
 Alpha virt. eigenvalues --    0.42820   0.43090   0.43441   0.43664   0.44211
 Alpha virt. eigenvalues --    0.44336   0.44582   0.45171   0.45426   0.45770
 Alpha virt. eigenvalues --    0.45928   0.46205   0.46464   0.46736   0.46941
 Alpha virt. eigenvalues --    0.47249   0.47821   0.48069   0.48548   0.48792
 Alpha virt. eigenvalues --    0.48930   0.49348   0.49693   0.50009   0.50271
 Alpha virt. eigenvalues --    0.50350   0.50757   0.51131   0.51570   0.51892
 Alpha virt. eigenvalues --    0.52664   0.52824   0.52993   0.53358   0.53822
 Alpha virt. eigenvalues --    0.54191   0.54606   0.55128   0.55249   0.55862
 Alpha virt. eigenvalues --    0.56339   0.56608   0.57074   0.57734   0.58123
 Alpha virt. eigenvalues --    0.58580   0.58665   0.59000   0.60291   0.60385
 Alpha virt. eigenvalues --    0.60882   0.61278   0.62166   0.62392   0.62953
 Alpha virt. eigenvalues --    0.63387   0.63774   0.64559   0.65222   0.65462
 Alpha virt. eigenvalues --    0.66019   0.66733   0.66917   0.67102   0.67557
 Alpha virt. eigenvalues --    0.68301   0.68829   0.69019   0.69517   0.69882
 Alpha virt. eigenvalues --    0.70218   0.70770   0.70895   0.71520   0.71673
 Alpha virt. eigenvalues --    0.71948   0.72721   0.73303   0.73800   0.73978
 Alpha virt. eigenvalues --    0.74516   0.74798   0.74967   0.75157   0.76002
 Alpha virt. eigenvalues --    0.76171   0.76346   0.76847   0.77120   0.77422
 Alpha virt. eigenvalues --    0.77930   0.78257   0.78513   0.78970   0.79576
 Alpha virt. eigenvalues --    0.79855   0.80016   0.80782   0.81173   0.81453
 Alpha virt. eigenvalues --    0.81565   0.81989   0.82129   0.82474   0.82824
 Alpha virt. eigenvalues --    0.83303   0.83486   0.83745   0.84333   0.84687
 Alpha virt. eigenvalues --    0.84747   0.85040   0.85376   0.85568   0.85763
 Alpha virt. eigenvalues --    0.86289   0.86817   0.87106   0.87561   0.88071
 Alpha virt. eigenvalues --    0.88158   0.88468   0.89243   0.89525   0.90073
 Alpha virt. eigenvalues --    0.90118   0.90663   0.90884   0.91466   0.91591
 Alpha virt. eigenvalues --    0.92212   0.92507   0.92668   0.93170   0.93523
 Alpha virt. eigenvalues --    0.93951   0.94299   0.94700   0.94863   0.95440
 Alpha virt. eigenvalues --    0.95469   0.96073   0.96332   0.96683   0.96775
 Alpha virt. eigenvalues --    0.97314   0.97509   0.97996   0.98166   0.98501
 Alpha virt. eigenvalues --    0.98832   0.99476   1.00382   1.00886   1.01106
 Alpha virt. eigenvalues --    1.01451   1.01831   1.02346   1.02799   1.03011
 Alpha virt. eigenvalues --    1.03420   1.03660   1.04298   1.04771   1.05502
 Alpha virt. eigenvalues --    1.05757   1.05934   1.06649   1.06783   1.06978
 Alpha virt. eigenvalues --    1.07244   1.07847   1.08242   1.08429   1.08863
 Alpha virt. eigenvalues --    1.09033   1.09623   1.10060   1.10232   1.10799
 Alpha virt. eigenvalues --    1.11130   1.12016   1.12094   1.12505   1.12799
 Alpha virt. eigenvalues --    1.13236   1.13781   1.14054   1.14971   1.15223
 Alpha virt. eigenvalues --    1.15911   1.16428   1.16839   1.17307   1.17765
 Alpha virt. eigenvalues --    1.18304   1.18640   1.19308   1.19688   1.20258
 Alpha virt. eigenvalues --    1.20434   1.21081   1.21489   1.21857   1.22380
 Alpha virt. eigenvalues --    1.22855   1.23130   1.23993   1.24796   1.24860
 Alpha virt. eigenvalues --    1.25524   1.25644   1.26476   1.27055   1.27427
 Alpha virt. eigenvalues --    1.28085   1.28559   1.28932   1.29643   1.29812
 Alpha virt. eigenvalues --    1.31140   1.31330   1.31631   1.32556   1.33090
 Alpha virt. eigenvalues --    1.33620   1.34122   1.34716   1.35170   1.35460
 Alpha virt. eigenvalues --    1.35913   1.36113   1.36928   1.37263   1.37428
 Alpha virt. eigenvalues --    1.37629   1.38126   1.39109   1.39350   1.39911
 Alpha virt. eigenvalues --    1.40463   1.40894   1.41616   1.42038   1.43087
 Alpha virt. eigenvalues --    1.43493   1.43900   1.44010   1.44340   1.44852
 Alpha virt. eigenvalues --    1.45954   1.46274   1.46387   1.46519   1.47256
 Alpha virt. eigenvalues --    1.48018   1.48129   1.48580   1.48954   1.49512
 Alpha virt. eigenvalues --    1.50143   1.50931   1.51026   1.51518   1.51636
 Alpha virt. eigenvalues --    1.52595   1.52951   1.53434   1.53782   1.54238
 Alpha virt. eigenvalues --    1.54373   1.55163   1.55443   1.55945   1.56188
 Alpha virt. eigenvalues --    1.56699   1.56964   1.57540   1.57894   1.58332
 Alpha virt. eigenvalues --    1.58604   1.59216   1.59582   1.60230   1.60705
 Alpha virt. eigenvalues --    1.60846   1.61666   1.62509   1.62865   1.63181
 Alpha virt. eigenvalues --    1.63464   1.63939   1.64850   1.65374   1.65412
 Alpha virt. eigenvalues --    1.65920   1.66172   1.66836   1.67476   1.68032
 Alpha virt. eigenvalues --    1.68357   1.69149   1.69715   1.70545   1.70970
 Alpha virt. eigenvalues --    1.71250   1.71502   1.71606   1.72800   1.73221
 Alpha virt. eigenvalues --    1.73519   1.74206   1.74849   1.75234   1.75664
 Alpha virt. eigenvalues --    1.76066   1.76880   1.77296   1.77551   1.78113
 Alpha virt. eigenvalues --    1.78660   1.78981   1.79223   1.79788   1.80216
 Alpha virt. eigenvalues --    1.80404   1.80834   1.81655   1.82173   1.82578
 Alpha virt. eigenvalues --    1.83061   1.83840   1.84450   1.84773   1.84973
 Alpha virt. eigenvalues --    1.85646   1.85949   1.86210   1.86732   1.88038
 Alpha virt. eigenvalues --    1.88200   1.88563   1.89323   1.90040   1.90290
 Alpha virt. eigenvalues --    1.90685   1.90918   1.92293   1.92886   1.93650
 Alpha virt. eigenvalues --    1.94101   1.94547   1.95211   1.96137   1.97268
 Alpha virt. eigenvalues --    1.97664   1.98452   1.99166   1.99414   1.99973
 Alpha virt. eigenvalues --    2.00256   2.01101   2.02055   2.02768   2.02862
 Alpha virt. eigenvalues --    2.03719   2.04635   2.04838   2.05232   2.05972
 Alpha virt. eigenvalues --    2.06282   2.06595   2.07446   2.08227   2.09613
 Alpha virt. eigenvalues --    2.10063   2.11094   2.11522   2.12275   2.13085
 Alpha virt. eigenvalues --    2.13744   2.14386   2.14710   2.15333   2.15991
 Alpha virt. eigenvalues --    2.16839   2.17727   2.18302   2.20188   2.20533
 Alpha virt. eigenvalues --    2.21582   2.21997   2.23251   2.23638   2.24170
 Alpha virt. eigenvalues --    2.25260   2.26242   2.27368   2.28374   2.29495
 Alpha virt. eigenvalues --    2.29991   2.31116   2.32248   2.32487   2.33095
 Alpha virt. eigenvalues --    2.33596   2.34327   2.35644   2.35922   2.36943
 Alpha virt. eigenvalues --    2.37133   2.38297   2.38894   2.40305   2.41195
 Alpha virt. eigenvalues --    2.41925   2.43660   2.43882   2.44474   2.45612
 Alpha virt. eigenvalues --    2.46086   2.46759   2.47505   2.48555   2.49621
 Alpha virt. eigenvalues --    2.51216   2.51405   2.52730   2.53644   2.54033
 Alpha virt. eigenvalues --    2.54519   2.55845   2.56148   2.57542   2.59110
 Alpha virt. eigenvalues --    2.59798   2.61147   2.62679   2.63699   2.64112
 Alpha virt. eigenvalues --    2.64917   2.66016   2.67078   2.68850   2.69714
 Alpha virt. eigenvalues --    2.70639   2.71642   2.71910   2.72993   2.73862
 Alpha virt. eigenvalues --    2.74668   2.75602   2.77674   2.78607   2.79219
 Alpha virt. eigenvalues --    2.80140   2.81457   2.82004   2.83917   2.84952
 Alpha virt. eigenvalues --    2.86855   2.88026   2.88749   2.89132   2.90142
 Alpha virt. eigenvalues --    2.91822   2.92192   2.93802   2.94786   2.95844
 Alpha virt. eigenvalues --    2.97260   2.97464   2.98496   2.99393   3.00697
 Alpha virt. eigenvalues --    3.01782   3.02846   3.04306   3.04880   3.05837
 Alpha virt. eigenvalues --    3.07313   3.09239   3.10476   3.12064   3.12404
 Alpha virt. eigenvalues --    3.12697   3.13472   3.14358   3.15829   3.16721
 Alpha virt. eigenvalues --    3.17455   3.18471   3.19059   3.19814   3.20976
 Alpha virt. eigenvalues --    3.21428   3.22519   3.22866   3.23616   3.24593
 Alpha virt. eigenvalues --    3.25020   3.25806   3.26491   3.26733   3.27496
 Alpha virt. eigenvalues --    3.27918   3.29159   3.29860   3.30728   3.31690
 Alpha virt. eigenvalues --    3.32587   3.33331   3.34169   3.34398   3.34805
 Alpha virt. eigenvalues --    3.34908   3.36233   3.37050   3.37378   3.37828
 Alpha virt. eigenvalues --    3.38620   3.39434   3.39881   3.40320   3.41188
 Alpha virt. eigenvalues --    3.41356   3.42285   3.42595   3.44382   3.44839
 Alpha virt. eigenvalues --    3.45826   3.46133   3.46506   3.46992   3.47742
 Alpha virt. eigenvalues --    3.48178   3.48897   3.49636   3.50228   3.50722
 Alpha virt. eigenvalues --    3.51155   3.51775   3.52459   3.52766   3.53618
 Alpha virt. eigenvalues --    3.54044   3.54862   3.55651   3.56095   3.56415
 Alpha virt. eigenvalues --    3.56867   3.57470   3.57747   3.58011   3.58938
 Alpha virt. eigenvalues --    3.59416   3.60289   3.61424   3.62004   3.62583
 Alpha virt. eigenvalues --    3.62908   3.63720   3.64383   3.64955   3.65381
 Alpha virt. eigenvalues --    3.66719   3.67574   3.67873   3.68553   3.69285
 Alpha virt. eigenvalues --    3.69733   3.70303   3.70846   3.72196   3.72395
 Alpha virt. eigenvalues --    3.73125   3.73388   3.74495   3.75367   3.75561
 Alpha virt. eigenvalues --    3.76346   3.77046   3.77616   3.78678   3.79342
 Alpha virt. eigenvalues --    3.80254   3.81414   3.81847   3.82202   3.82569
 Alpha virt. eigenvalues --    3.83642   3.84116   3.84697   3.84789   3.85570
 Alpha virt. eigenvalues --    3.86060   3.86792   3.87331   3.88255   3.89170
 Alpha virt. eigenvalues --    3.89674   3.90846   3.91049   3.91853   3.92800
 Alpha virt. eigenvalues --    3.93530   3.94381   3.94842   3.95164   3.95763
 Alpha virt. eigenvalues --    3.96204   3.96784   3.98236   3.99346   4.00332
 Alpha virt. eigenvalues --    4.00842   4.01567   4.01979   4.02076   4.02906
 Alpha virt. eigenvalues --    4.03323   4.03842   4.05458   4.05730   4.06560
 Alpha virt. eigenvalues --    4.07569   4.07944   4.09061   4.10423   4.10914
 Alpha virt. eigenvalues --    4.11729   4.12169   4.12491   4.13703   4.14220
 Alpha virt. eigenvalues --    4.14616   4.15286   4.17116   4.17813   4.18429
 Alpha virt. eigenvalues --    4.19329   4.19874   4.20852   4.22132   4.22781
 Alpha virt. eigenvalues --    4.22897   4.23611   4.23857   4.25596   4.25837
 Alpha virt. eigenvalues --    4.26780   4.27202   4.29218   4.29301   4.30426
 Alpha virt. eigenvalues --    4.30810   4.32167   4.32813   4.34169   4.35246
 Alpha virt. eigenvalues --    4.36454   4.37259   4.38412   4.39504   4.39906
 Alpha virt. eigenvalues --    4.40777   4.41960   4.42441   4.43214   4.44335
 Alpha virt. eigenvalues --    4.44794   4.45450   4.46407   4.46495   4.47690
 Alpha virt. eigenvalues --    4.48021   4.50122   4.51637   4.52424   4.53533
 Alpha virt. eigenvalues --    4.54021   4.54816   4.55050   4.55667   4.57265
 Alpha virt. eigenvalues --    4.57733   4.58280   4.58585   4.59763   4.60523
 Alpha virt. eigenvalues --    4.60807   4.62166   4.62540   4.63034   4.63466
 Alpha virt. eigenvalues --    4.63901   4.65108   4.65750   4.67186   4.68276
 Alpha virt. eigenvalues --    4.69912   4.71003   4.71904   4.72739   4.74546
 Alpha virt. eigenvalues --    4.74975   4.76040   4.76734   4.77164   4.78839
 Alpha virt. eigenvalues --    4.79069   4.80217   4.80882   4.83036   4.83673
 Alpha virt. eigenvalues --    4.84030   4.85033   4.85497   4.86097   4.88021
 Alpha virt. eigenvalues --    4.88931   4.89759   4.91883   4.92824   4.93808
 Alpha virt. eigenvalues --    4.94621   4.95008   4.96543   4.97658   4.98360
 Alpha virt. eigenvalues --    4.99361   4.99913   5.00972   5.01854   5.02473
 Alpha virt. eigenvalues --    5.03730   5.04259   5.05841   5.07277   5.07690
 Alpha virt. eigenvalues --    5.08668   5.09014   5.10450   5.11437   5.12876
 Alpha virt. eigenvalues --    5.13695   5.14765   5.15333   5.16369   5.17033
 Alpha virt. eigenvalues --    5.19023   5.20265   5.20834   5.22585   5.22996
 Alpha virt. eigenvalues --    5.23620   5.25107   5.25962   5.26288   5.29163
 Alpha virt. eigenvalues --    5.30511   5.31068   5.34974   5.35587   5.36729
 Alpha virt. eigenvalues --    5.39021   5.41236   5.41695   5.42485   5.44726
 Alpha virt. eigenvalues --    5.46144   5.47923   5.48877   5.49634   5.53942
 Alpha virt. eigenvalues --    5.54839   5.56737   5.58692   5.59005   5.59992
 Alpha virt. eigenvalues --    5.61341   5.61807   5.65284   5.67293   5.68453
 Alpha virt. eigenvalues --    5.70962   5.72093   5.74262   5.74516   5.77513
 Alpha virt. eigenvalues --    5.79938   5.82442   5.83604   5.86530   5.89884
 Alpha virt. eigenvalues --    5.91609   5.93803   5.96891   5.99624   6.04281
 Alpha virt. eigenvalues --    6.06220   6.08998   6.13523   6.18689   6.21729
 Alpha virt. eigenvalues --    6.22840   6.24717   6.26501   6.27649   6.29220
 Alpha virt. eigenvalues --    6.31180   6.33414   6.34465   6.35631   6.38909
 Alpha virt. eigenvalues --    6.40762   6.41740   6.43177   6.46182   6.46668
 Alpha virt. eigenvalues --    6.48729   6.51440   6.52488   6.56791   6.57648
 Alpha virt. eigenvalues --    6.60633   6.62011   6.63553   6.66367   6.66998
 Alpha virt. eigenvalues --    6.68245   6.70395   6.74749   6.75544   6.82137
 Alpha virt. eigenvalues --    6.85545   6.86709   6.88405   6.89075   6.91005
 Alpha virt. eigenvalues --    6.97008   6.98921   7.00059   7.04884   7.06728
 Alpha virt. eigenvalues --    7.08562   7.13985   7.16507   7.21354   7.27927
 Alpha virt. eigenvalues --    7.28247   7.33901   7.37287   7.38433   7.40741
 Alpha virt. eigenvalues --    7.44083   7.57741   7.74746   7.88126   7.91314
 Alpha virt. eigenvalues --    8.03431   8.12270   8.50854   8.62711   8.77860
 Alpha virt. eigenvalues --    8.79347   8.89364   8.94028   9.03008   9.07445
 Alpha virt. eigenvalues --    9.10016   9.13216   9.46074   9.49749  15.78354
 Alpha virt. eigenvalues --   16.05091  16.16837  16.29513  17.36814  17.42270
 Alpha virt. eigenvalues --   17.71037  17.81683  18.06284  18.15829  18.66392
 Alpha virt. eigenvalues --   19.11247  20.05530  20.32724  20.82593  21.09426
 Alpha virt. eigenvalues --   23.07677
          Condensed to atoms (all electrons):
               1          2          3          4          5          6
     1  C   10.513447  -2.165522  -1.016602   0.253582  -0.177018  -1.887720
     2  C   -2.165522  14.321193  -0.405791  -1.169671  -0.354385  -1.152348
     3  C   -1.016602  -0.405791   8.924658  -0.468214  -0.455588   0.125724
     4  C    0.253582  -1.169671  -0.468214   8.299500  -0.678081  -0.270211
     5  C   -0.177018  -0.354385  -0.455588  -0.678081   8.211565  -0.192641
     6  C   -1.887720  -1.152348   0.125724  -0.270211  -0.192641  10.445604
     7  F   -0.140772   0.057002  -0.046419   0.085104  -0.007038  -0.225728
     8  N   -0.274479  -1.110832  -0.946023   0.287336  -0.027302   0.249393
     9  C   -0.078864  -0.811500   0.195875  -0.082935  -0.026223   0.044435
    10  C   -0.027842   0.052335  -0.016862   0.007219   0.003476   0.012356
    11  C    0.112824   0.004492  -0.059777   0.004818  -0.000459  -0.005346
    12  C   -0.030987  -0.572648  -0.000692   0.020264  -0.005230   0.034987
    13  O   -0.004603   0.183002  -0.013479  -0.520769  -0.276970  -0.070324
    14  C    0.001759   0.001388  -0.063915   0.027717  -0.055004   0.009166
    15  C   -0.598312  -0.408467   0.110497   0.185621  -0.061589  -0.626923
    16  O   -0.155823   0.018538   0.000606   0.008912  -0.022535   0.083474
    17  O   -0.004654  -0.058844  -0.012514   0.005253  -0.000538  -0.021504
    18  H   -0.017991  -0.390164   0.354474   0.050785   0.030420  -0.003910
    19  H    0.120167  -0.141860  -0.046744  -0.768404   0.482770  -0.735816
    20  H    0.031200   0.008738  -0.014704  -0.025756  -0.004327   0.001038
    21  H   -0.001638  -0.111594   0.024995  -0.032707  -0.005856   0.007362
    22  H   -0.003197   0.021277  -0.004013   0.002990   0.000171   0.000443
    23  H   -0.010393  -0.012795   0.009447  -0.002448   0.000129   0.000662
    24  H   -0.009876  -0.010837   0.004111  -0.000308  -0.000352   0.001450
    25  H    0.023673   0.045993  -0.008637   0.002213   0.000009  -0.003266
    26  H   -0.117623  -0.120265   0.034495  -0.011798   0.000243   0.035432
    27  H    0.063029  -0.033413  -0.013772   0.000621   0.003206   0.001204
    28  H   -0.004470   0.007310  -0.013671  -0.017425   0.021331  -0.001969
    29  H    0.001285  -0.010103   0.001738   0.030437  -0.042069   0.009728
    30  H   -0.004892  -0.000205   0.028942   0.002109  -0.037930   0.019813
    31  H   -0.029944   0.009208   0.001947  -0.003173   0.002916  -0.023990
               7          8          9         10         11         12
     1  C   -0.140772  -0.274479  -0.078864  -0.027842   0.112824  -0.030987
     2  C    0.057002  -1.110832  -0.811500   0.052335   0.004492  -0.572648
     3  C   -0.046419  -0.946023   0.195875  -0.016862  -0.059777  -0.000692
     4  C    0.085104   0.287336  -0.082935   0.007219   0.004818   0.020264
     5  C   -0.007038  -0.027302  -0.026223   0.003476  -0.000459  -0.005230
     6  C   -0.225728   0.249393   0.044435   0.012356  -0.005346   0.034987
     7  F    9.868789  -0.004214  -0.001250  -0.000789   0.001694   0.009209
     8  N   -0.004214   9.244175  -0.029004  -0.128625  -0.100001  -0.056170
     9  C   -0.001250  -0.029004   7.000676  -0.169764   0.168609  -0.189938
    10  C   -0.000789  -0.128625  -0.169764   6.230392  -0.000048   0.129643
    11  C    0.001694  -0.100001   0.168609  -0.000048   6.484201  -0.351852
    12  C    0.009209  -0.056170  -0.189938   0.129643  -0.351852   7.154185
    13  O   -0.001316  -0.018270  -0.002903   0.004373  -0.001850   0.003343
    14  C   -0.006960   0.006082  -0.004657  -0.000129   0.000730  -0.000094
    15  C    0.049698  -0.158384  -0.046715  -0.015938  -0.059228  -0.003338
    16  O   -0.038926   0.058312   0.011714   0.001531   0.007678   0.010014
    17  O    0.000341  -0.070791  -0.004168  -0.013079   0.005427   0.039291
    18  H   -0.001647  -0.100480   0.043347   0.048274  -0.017724   0.013462
    19  H   -0.000507   0.007502   0.004940   0.001432  -0.001555  -0.001176
    20  H    0.000334  -0.008925   0.320147  -0.259787   0.044399  -0.075135
    21  H    0.000484   0.002053   0.514416  -0.137184   0.021590   0.010028
    22  H   -0.000060  -0.011852  -0.069314   0.429160  -0.109570   0.009979
    23  H   -0.000027  -0.044285  -0.001198   0.460568  -0.006561   0.019047
    24  H    0.000058   0.000120   0.028676  -0.149514   0.420004  -0.017944
    25  H    0.000057  -0.063627  -0.018706   0.008150   0.502671  -0.070494
    26  H    0.000247   0.044558  -0.013087   0.037682  -0.269751   0.335084
    27  H   -0.000389   0.004025  -0.022483   0.031450  -0.147170   0.247455
    28  H    0.000329  -0.000556   0.001857  -0.000017   0.000085  -0.000091
    29  H   -0.001139   0.003579  -0.001429  -0.000141  -0.000123   0.000024
    30  H   -0.001451  -0.000130  -0.000700  -0.000043   0.000170  -0.000003
    31  H   -0.000458  -0.003289  -0.000796  -0.001265  -0.007508  -0.024272
              13         14         15         16         17         18
     1  C   -0.004603   0.001759  -0.598312  -0.155823  -0.004654  -0.017991
     2  C    0.183002   0.001388  -0.408467   0.018538  -0.058844  -0.390164
     3  C   -0.013479  -0.063915   0.110497   0.000606  -0.012514   0.354474
     4  C   -0.520769   0.027717   0.185621   0.008912   0.005253   0.050785
     5  C   -0.276970  -0.055004  -0.061589  -0.022535  -0.000538   0.030420
     6  C   -0.070324   0.009166  -0.626923   0.083474  -0.021504  -0.003910
     7  F   -0.001316  -0.006960   0.049698  -0.038926   0.000341  -0.001647
     8  N   -0.018270   0.006082  -0.158384   0.058312  -0.070791  -0.100480
     9  C   -0.002903  -0.004657  -0.046715   0.011714  -0.004168   0.043347
    10  C    0.004373  -0.000129  -0.015938   0.001531  -0.013079   0.048274
    11  C   -0.001850   0.000730  -0.059228   0.007678   0.005427  -0.017724
    12  C    0.003343  -0.000094  -0.003338   0.010014   0.039291   0.013462
    13  O    9.633648   0.129666  -0.022686   0.000277   0.000932  -0.011809
    14  C    0.129666   6.122297  -0.006516   0.000037   0.000464  -0.007540
    15  C   -0.022686  -0.006516   7.624796  -0.284768   0.108855   0.006572
    16  O    0.000277   0.000037  -0.284768   9.558136  -0.164509   0.001265
    17  O    0.000932   0.000464   0.108855  -0.164509   8.708421   0.000065
    18  H   -0.011809  -0.007540   0.006572   0.001265   0.000065   0.769275
    19  H   -0.125834  -0.189470   0.007935  -0.000002   0.000625  -0.004485
    20  H   -0.009109  -0.000481  -0.006838   0.000130  -0.002738  -0.075008
    21  H   -0.008432  -0.001053   0.002283   0.000521  -0.000220  -0.072494
    22  H    0.000201   0.000032   0.000048   0.000064   0.000521   0.003462
    23  H    0.000158  -0.000009   0.003067  -0.000013  -0.003634   0.003109
    24  H   -0.000006  -0.000004   0.007807   0.000326   0.006318   0.001185
    25  H   -0.000374   0.000162  -0.012289   0.000444  -0.001579  -0.002530
    26  H   -0.000189  -0.000257  -0.009009  -0.011736  -0.108778  -0.001223
    27  H    0.000646   0.000029  -0.058207   0.006923  -0.079456   0.000102
    28  H   -0.026071   0.385706  -0.000761   0.000012   0.000014   0.001371
    29  H   -0.001721   0.342717   0.000854   0.000008   0.000005  -0.002579
    30  H   -0.011811   0.354751   0.000051  -0.000146   0.000081  -0.001847
    31  H   -0.000235  -0.000052   0.136702  -0.068071   0.179127  -0.000044
              19         20         21         22         23         24
     1  C    0.120167   0.031200  -0.001638  -0.003197  -0.010393  -0.009876
     2  C   -0.141860   0.008738  -0.111594   0.021277  -0.012795  -0.010837
     3  C   -0.046744  -0.014704   0.024995  -0.004013   0.009447   0.004111
     4  C   -0.768404  -0.025756  -0.032707   0.002990  -0.002448  -0.000308
     5  C    0.482770  -0.004327  -0.005856   0.000171   0.000129  -0.000352
     6  C   -0.735816   0.001038   0.007362   0.000443   0.000662   0.001450
     7  F   -0.000507   0.000334   0.000484  -0.000060  -0.000027   0.000058
     8  N    0.007502  -0.008925   0.002053  -0.011852  -0.044285   0.000120
     9  C    0.004940   0.320147   0.514416  -0.069314  -0.001198   0.028676
    10  C    0.001432  -0.259787  -0.137184   0.429160   0.460568  -0.149514
    11  C   -0.001555   0.044399   0.021590  -0.109570  -0.006561   0.420004
    12  C   -0.001176  -0.075135   0.010028   0.009979   0.019047  -0.017944
    13  O   -0.125834  -0.009109  -0.008432   0.000201   0.000158  -0.000006
    14  C   -0.189470  -0.000481  -0.001053   0.000032  -0.000009  -0.000004
    15  C    0.007935  -0.006838   0.002283   0.000048   0.003067   0.007807
    16  O   -0.000002   0.000130   0.000521   0.000064  -0.000013   0.000326
    17  O    0.000625  -0.002738  -0.000220   0.000521  -0.003634   0.006318
    18  H   -0.004485  -0.075008  -0.072494   0.003462   0.003109   0.001185
    19  H    2.368536  -0.000362  -0.000912   0.000077  -0.000011  -0.000035
    20  H   -0.000362   0.765677   0.094224  -0.031453  -0.034699  -0.010165
    21  H   -0.000912   0.094224   0.504755  -0.035909   0.006487   0.003954
    22  H    0.000077  -0.031453  -0.035909   0.549372  -0.048096  -0.006019
    23  H   -0.000011  -0.034699   0.006487  -0.048096   0.502649   0.003870
    24  H   -0.000035  -0.010165   0.003954  -0.006019   0.003870   0.680705
    25  H   -0.000088   0.012761   0.001065   0.001801  -0.002619  -0.098241
    26  H    0.000227   0.006304   0.005111  -0.007228   0.007347  -0.054834
    27  H    0.000396   0.020460  -0.008362  -0.001711  -0.003444  -0.078252
    28  H    0.012084   0.000224   0.000181   0.000000  -0.000010  -0.000001
    29  H   -0.038822  -0.000167  -0.000085   0.000010  -0.000015  -0.000003
    30  H   -0.071141  -0.000015   0.000016  -0.000009   0.000003   0.000006
    31  H    0.000226   0.000335  -0.000053  -0.000071   0.000138   0.000646
              25         26         27         28         29         30
     1  C    0.023673  -0.117623   0.063029  -0.004470   0.001285  -0.004892
     2  C    0.045993  -0.120265  -0.033413   0.007310  -0.010103  -0.000205
     3  C   -0.008637   0.034495  -0.013772  -0.013671   0.001738   0.028942
     4  C    0.002213  -0.011798   0.000621  -0.017425   0.030437   0.002109
     5  C    0.000009   0.000243   0.003206   0.021331  -0.042069  -0.037930
     6  C   -0.003266   0.035432   0.001204  -0.001969   0.009728   0.019813
     7  F    0.000057   0.000247  -0.000389   0.000329  -0.001139  -0.001451
     8  N   -0.063627   0.044558   0.004025  -0.000556   0.003579  -0.000130
     9  C   -0.018706  -0.013087  -0.022483   0.001857  -0.001429  -0.000700
    10  C    0.008150   0.037682   0.031450  -0.000017  -0.000141  -0.000043
    11  C    0.502671  -0.269751  -0.147170   0.000085  -0.000123   0.000170
    12  C   -0.070494   0.335084   0.247455  -0.000091   0.000024  -0.000003
    13  O   -0.000374  -0.000189   0.000646  -0.026071  -0.001721  -0.011811
    14  C    0.000162  -0.000257   0.000029   0.385706   0.342717   0.354751
    15  C   -0.012289  -0.009009  -0.058207  -0.000761   0.000854   0.000051
    16  O    0.000444  -0.011736   0.006923   0.000012   0.000008  -0.000146
    17  O   -0.001579  -0.108778  -0.079456   0.000014   0.000005   0.000081
    18  H   -0.002530  -0.001223   0.000102   0.001371  -0.002579  -0.001847
    19  H   -0.000088   0.000227   0.000396   0.012084  -0.038822  -0.071141
    20  H    0.012761   0.006304   0.020460   0.000224  -0.000167  -0.000015
    21  H    0.001065   0.005111  -0.008362   0.000181  -0.000085   0.000016
    22  H    0.001801  -0.007228  -0.001711   0.000000   0.000010  -0.000009
    23  H   -0.002619   0.007347  -0.003444  -0.000010  -0.000015   0.000003
    24  H   -0.098241  -0.054834  -0.078252  -0.000001  -0.000003   0.000006
    25  H    0.551154  -0.000720   0.024330   0.000000  -0.000008   0.000016
    26  H   -0.000720   0.707138   0.080958  -0.000019  -0.000052   0.000032
    27  H    0.024330   0.080958   0.561080   0.000028  -0.000046  -0.000017
    28  H    0.000000  -0.000019   0.000028   0.434309  -0.034675  -0.035271
    29  H   -0.000008  -0.000052  -0.000046  -0.034675   0.361741   0.018436
    30  H    0.000016   0.000032  -0.000017  -0.035271   0.018436   0.377987
    31  H   -0.000815   0.007658  -0.011093  -0.000007  -0.000003  -0.000014
              31
     1  C   -0.029944
     2  C    0.009208
     3  C    0.001947
     4  C   -0.003173
     5  C    0.002916
     6  C   -0.023990
     7  F   -0.000458
     8  N   -0.003289
     9  C   -0.000796
    10  C   -0.001265
    11  C   -0.007508
    12  C   -0.024272
    13  O   -0.000235
    14  C   -0.000052
    15  C    0.136702
    16  O   -0.068071
    17  O    0.179127
    18  H   -0.000044
    19  H    0.000226
    20  H    0.000335
    21  H   -0.000053
    22  H   -0.000071
    23  H    0.000138
    24  H    0.000646
    25  H   -0.000815
    26  H    0.007658
    27  H   -0.011093
    28  H   -0.000007
    29  H   -0.000003
    30  H   -0.000014
    31  H    0.640213
 Mulliken charges:
               1
     1  C    1.642255
     2  C    0.310768
     3  C   -0.210094
     4  C    0.777418
     5  C   -0.325102
     6  C    0.139424
     7  F   -0.594257
     8  N    0.250103
     9  C   -0.759056
    10  C   -0.537012
    11  C   -0.640870
    12  C   -0.635950
    13  O   -0.827487
    14  C   -1.046564
    15  C    0.135180
    16  O   -1.022393
    17  O   -0.508734
    18  H    0.384306
    19  H    0.120308
    20  H    0.253695
    21  H    0.216972
    22  H    0.308895
    23  H    0.153576
    24  H    0.277156
    25  H    0.109495
    26  H    0.424055
    27  H    0.411872
    28  H    0.270173
    29  H    0.362618
    30  H    0.363213
    31  H    0.196040
 Sum of Mulliken charges =   0.00000
 Mulliken charges with hydrogens summed into heavy atoms:
               1
     1  C    1.642255
     2  C    0.310768
     3  C    0.174211
     4  C    0.777418
     5  C   -0.204794
     6  C    0.139424
     7  F   -0.594257
     8  N    0.250103
     9  C   -0.288389
    10  C   -0.074541
    11  C   -0.254220
    12  C    0.199977
    13  O   -0.827487
    14  C   -0.050560
    15  C    0.135180
    16  O   -1.022393
    17  O   -0.312694
 Electronic spatial extent (au):  <R**2>=           4296.4995
 Charge=              0.0000 electrons
 Dipole moment (field-independent basis, Debye):
    X=              1.9200    Y=             -4.5528    Z=              0.1321  Tot=              4.9428
 Quadrupole moment (field-independent basis, Debye-Ang):
   XX=            -78.0839   YY=           -109.2896   ZZ=            -99.8280
   XY=              5.6387   XZ=             -0.6997   YZ=             -3.2473
 Traceless Quadrupole moment (field-independent basis, Debye-Ang):
   XX=             17.6500   YY=            -13.5557   ZZ=             -4.0942
   XY=              5.6387   XZ=             -0.6997   YZ=             -3.2473
 Octapole moment (field-independent basis, Debye-Ang**2):
  XXX=            -43.4862  YYY=            -27.9612  ZZZ=              0.5453  XYY=             24.9597
  XXY=             -9.5061  XXZ=              3.3437  XZZ=             -1.4086  YZZ=              8.9443
  YYZ=            -11.0716  XYZ=              1.4173
 Hexadecapole moment (field-independent basis, Debye-Ang**3):
 XXXX=          -2981.9546 YYYY=          -2095.2069 ZZZZ=           -222.1762 XXXY=            144.1469
 XXXZ=            -26.0302 YYYX=             78.9860 YYYZ=            -48.1927 ZZZX=            -12.4625
 ZZZY=              2.6593 XXYY=           -795.1162 XXZZ=           -598.2906 YYZZ=           -356.7665
 XXYZ=            -19.5186 YYXZ=            -21.3867 ZZXY=              0.9230
 N-N= 1.273741082138D+03 E-N=-4.526289388213D+03  KE= 8.423323179954D+02
 ******************************Gaussian NBO Version 3.1******************************
             N A T U R A L   A T O M I C   O R B I T A L   A N D
          N A T U R A L   B O N D   O R B I T A L   A N A L Y S I S
 ******************************Gaussian NBO Version 3.1******************************
       /RESON  / : Allow strongly delocalized NBO set

 Analyzing the SCF density

 Job title: 26                                                              

 Storage needed:   3660984 in NPA,   4879583 in NBO (********** available)
 GSVD:  LWork=       69696 too small for GESVD, short by     2221740 words or     2221740 for optimal perf.
 Remove ICRem=  238 ICRemI=  239 L=1 PNAO number  246 atom    6 type 153 NPNAO= 1104
   due to symmetric orthogonalization 2, value= 0.00D+00.
 Remove ICRem=  238 ICRemI=  239 L=1 PNAO number  242 atom    6 type 152 NPNAO= 1103
   due to symmetric orthogonalization 2, value= 0.00D+00.
 Remove ICRem=  238 ICRemI=  239 L=1 PNAO number  238 atom    6 type 151 NPNAO= 1102
   due to symmetric orthogonalization 2, value= 0.00D+00.
 GSVD:  LWork=       78774 too small for GESVD, short by     2194533 words or     2194533 for optimal perf.

 Computed number of electrons  125.99998581 does not match expected value of   126.


 NATURAL POPULATIONS:  Natural atomic orbital occupancies 
                                                          
   NAO  Atom  No  lang   Type(AO)    Occupancy      Energy
 ----------------------------------------------------------
     1    C    1  S      Cor( 1S)     1.99870     -10.36857
     2    C    1  S      Val( 2S)     0.88364      -0.09791
     3    C    1  S      Ryd( 3S)     0.00108       1.90746
     4    C    1  S      Ryd( 4S)     0.00015       2.30949
     5    C    1  S      Ryd( 5S)     0.00002       2.55025
     6    C    1  px     Val( 2p)     1.12812      -0.11280
     7    C    1  px     Ryd( 4p)     0.00404       2.40883
     8    C    1  px     Ryd( 3p)     0.00005       1.12966
     9    C    1  px     Ryd( 5p)     0.00010       3.05794
    10    C    1  py     Val( 2p)     1.10413      -0.09819
    11    C    1  py     Ryd( 4p)     0.00466       2.44172
    12    C    1  py     Ryd( 3p)     0.00017       1.16389
    13    C    1  py     Ryd( 5p)     0.00006       2.62331
    14    C    1  pz     Val( 2p)     1.21037      -0.13941
    15    C    1  pz     Ryd( 4p)     0.00298       1.09638
    16    C    1  pz     Ryd( 3p)     0.00037       1.03932
    17    C    1  pz     Ryd( 5p)     0.00020       2.16617
    18    C    1  dxy    Ryd( 3d)     0.00140       2.99591
    19    C    1  dxy    Ryd( 4d)     0.00031       4.03775
    20    C    1  dxy    Ryd( 5d)     0.00005       5.68134
    21    C    1  dxz    Ryd( 3d)     0.00041       1.33962
    22    C    1  dxz    Ryd( 5d)     0.00027       3.33934
    23    C    1  dxz    Ryd( 4d)     0.00004       3.27842
    24    C    1  dyz    Ryd( 3d)     0.00020       1.41212
    25    C    1  dyz    Ryd( 5d)     0.00013       3.30731
    26    C    1  dyz    Ryd( 4d)     0.00004       3.23036
    27    C    1  dx2y2  Ryd( 3d)     0.00094       2.93615
    28    C    1  dx2y2  Ryd( 4d)     0.00035       4.03456
    29    C    1  dx2y2  Ryd( 5d)     0.00005       5.64249
    30    C    1  dz2    Ryd( 3d)     0.00097       1.18478
    31    C    1  dz2    Ryd( 4d)     0.00026       4.04422
    32    C    1  dz2    Ryd( 5d)     0.00005       4.49295
    33    C    1  f(0)   Ryd( 4f)     0.00086       1.88647
    34    C    1  f(0)   Ryd( 5f)     0.00030       3.54849
    35    C    1  f(C1)  Ryd( 4f)     0.00083       2.16531
    36    C    1  f(C1)  Ryd( 5f)     0.00017       3.66139
    37    C    1  f(S1)  Ryd( 4f)     0.00069       2.31001
    38    C    1  f(S1)  Ryd( 5f)     0.00032       3.73097
    39    C    1  f(C2)  Ryd( 4f)     0.00055       1.85774
    40    C    1  f(C2)  Ryd( 5f)     0.00007       3.63021
    41    C    1  f(S2)  Ryd( 4f)     0.00066       1.81106
    42    C    1  f(S2)  Ryd( 5f)     0.00010       3.52034
    43    C    1  f(C3)  Ryd( 4f)     0.00091       3.55717
    44    C    1  f(C3)  Ryd( 5f)     0.00010       5.00997
    45    C    1  f(S3)  Ryd( 4f)     0.00143       2.70917
    46    C    1  f(S3)  Ryd( 5f)     0.00027       4.43894
 
    47    C    2  S      Cor( 1S)     1.99894     -10.41727
    48    C    2  S      Val( 2S)     0.78505      -0.05811
    49    C    2  S      Ryd( 4S)     0.00162       2.30254
    50    C    2  S      Ryd( 5S)     0.00008       2.67603
    51    C    2  S      Ryd( 3S)     0.00001       1.30027
    52    C    2  px     Val( 2p)     0.95634      -0.03148
    53    C    2  px     Ryd( 4p)     0.00460       2.19289
    54    C    2  px     Ryd( 5p)     0.00009       3.21523
    55    C    2  px     Ryd( 3p)     0.00001       1.04639
    56    C    2  py     Val( 2p)     1.06275      -0.06437
    57    C    2  py     Ryd( 5p)     0.00447       2.28598
    58    C    2  py     Ryd( 4p)     0.00007       2.06837
    59    C    2  py     Ryd( 3p)     0.00002       0.98427
    60    C    2  pz     Val( 2p)     0.91897      -0.11335
    61    C    2  pz     Ryd( 4p)     0.00193       1.08865
    62    C    2  pz     Ryd( 5p)     0.00016       1.86797
    63    C    2  pz     Ryd( 3p)     0.00006       0.77471
    64    C    2  dxy    Ryd( 3d)     0.00083       3.42199
    65    C    2  dxy    Ryd( 4d)     0.00072       4.00449
    66    C    2  dxy    Ryd( 5d)     0.00006       5.31732
    67    C    2  dxz    Ryd( 3d)     0.00066       1.42827
    68    C    2  dxz    Ryd( 4d)     0.00056       3.07776
[...]
 0.00000483,-0.00002891,-0.00001001,-0.00000271,-0.00000516,0.00000010,
 -0.00015451,-0.00010340,0.00003199,-0.00004513,-0.00033229,-0.00003806
 ,0.00001267,-0.00073580,0.00100376,-0.00033648,0.00291788,0.00051696,0
 .00336684,-0.00982162,-0.01320093,-0.04918477,0.12912251,0.23049314,0.
 00085853,0.00066537,-0.00011904,0.00323932,-0.00094369,-0.00160887,-0.
 00087273,-0.00042652,0.00091145,0.00135589,0.00003769,0.00033870,0.000
 04962,0.00058987,-0.00097899,-0.00131550,-0.00030972,0.00081262,0.0000
 7175,-0.00001831,-0.00001854,0.00830666,-0.01487647,0.00264213,-0.0013
 7484,-0.00176326,0.00030100,-0.00363755,-0.00159423,-0.00265099,-0.013
 13185,0.01893163,0.00067650,-0.16012424,0.13371689,0.00345358,-0.00013
 067,-0.00011046,0.00017585,0.00003021,0.00000972,-0.00001821,-0.001225
 96,-0.00092754,-0.00134959,-0.00094321,-0.00022805,-0.00072804,0.00009
 610,0.00006516,0.00028144,-0.00002582,-0.00014989,-0.00005837,-0.00001
 245,-0.00002104,-0.00003090,0.00049095,-0.00016605,0.00037475,0.000037
 85,-0.00001249,0.00000907,-0.00007550,0.00130718,-0.00048258,0.0001104
 7,-0.00027876,0.00016175,-0.00073330,-0.00014223,-0.00018889,0.0017367
 6,-0.00026465,0.00031099,0.17185519,-0.00000775,0.00076155,-0.00105517
 ,0.00632179,0.00117100,-0.00023266,-0.00143181,-0.00081614,0.00130847,
 0.00159502,-0.00010208,0.00036611,-0.00055670,0.00052946,-0.00089529,-
 0.00101206,0.00007797,0.00081034,0.00012257,0.00001613,-0.00006382,0.0
 0769379,-0.02392583,0.00826508,-0.00122591,-0.00332168,-0.00187174,-0.
 00234001,-0.00063784,-0.00086811,-0.00568360,0.01004332,-0.00043048,0.
 12833290,-0.20053428,-0.00335101,-0.00007730,0.00008341,-0.00015431,-0
 .00004816,-0.00000383,-0.00001002,-0.00125015,-0.00223877,-0.00027447,
 0.00054353,0.00092667,0.00022038,0.00018650,0.00027413,-0.00009358,0.0
 0001874,-0.00005911,-0.00012762,0.00002123,-0.00003663,-0.00008989,0.0
 0078182,-0.00052078,0.00095642,-0.00008563,0.00002091,0.00000091,0.000
 01087,0.00065033,-0.00034757,-0.00005630,0.00005992,-0.00001200,0.0000
 6377,-0.00023452,0.00042596,0.00031292,0.00069095,0.00059156,-0.138832
 84,0.22215449,0.00012793,-0.00036573,-0.00008377,-0.00155631,-0.000098
 66,0.00088847,0.00005701,-0.00015517,-0.00045572,-0.00003092,-0.000115
 59,0.00003233,0.00003462,0.00001935,-0.00001611,-0.00000341,0.00011507
 ,0.00007477,0.00001112,0.00003214,-0.00004794,-0.01028262,0.01563574,-
 0.00219193,-0.00009087,0.00206006,-0.00025266,-0.00207748,0.00054264,-
 0.00204634,-0.01032075,0.01275443,-0.00080298,0.00782577,-0.00668371,-
 0.05005628,0.00003128,0.00005556,-0.00006264,-0.00003251,0.00001115,0.
 00001732,-0.00118200,-0.00267760,-0.00014428,-0.00028015,0.00125118,-0
 .00073806,-0.00017414,0.00077028,0.00080432,-0.00003361,0.00005254,0.0
 0005454,0.00000584,-0.00001524,-0.00001926,-0.00037208,0.00037684,-0.0
 0066851,-0.00012274,0.00003954,-0.00022645,-0.00037421,0.00074546,-0.0
 0009642,-0.00021455,0.00031717,0.00002209,-0.00037632,-0.00015621,-0.0
 0009783,0.00040393,0.00056348,0.00098180,-0.00182732,-0.00160560,0.054
 92418,0.00037758,0.00045338,-0.00021823,0.00227986,-0.00047166,0.00165
 242,-0.00107889,-0.00059993,0.00005214,0.00072589,-0.00028506,0.000100
 64,-0.00010118,0.00024355,-0.00041651,-0.00038132,-0.00012051,0.000297
 07,-0.00011447,0.00012053,-0.00018810,-0.00472301,-0.00629241,0.014055
 67,-0.00199750,0.00098014,-0.00009558,0.00093159,-0.00088998,0.0002608
 8,0.00554904,-0.00897917,-0.02736032,-0.06374562,0.02168403,0.05529993
 ,-0.00019163,-0.00002114,0.00008503,0.00005144,0.00002672,0.00001364,-
 0.00382170,0.00146703,0.00256667,0.00069512,-0.00070567,-0.00073149,0.
 00088260,-0.00093278,-0.00191928,0.00004364,0.00010376,0.00001926,-0.0
 0000200,0.00002167,-0.00002520,0.00000202,-0.00000286,0.00012641,0.000
 35613,0.00000506,0.00052205,-0.00012499,0.00006395,0.00029173,-0.00012
 098,0.00041037,0.00030353,0.00161749,-0.00009345,0.00067334,-0.0038920
 9,-0.00011703,-0.00373203,-0.00459312,0.00651021,0.02064399,0.07192337
 ,-0.00057931,0.00041164,-0.00066652,0.00215713,0.00028961,0.00266108,-
 0.00111265,-0.00081606,0.00002088,0.00044177,-0.00038884,-0.00012553,-
 0.00033316,0.00004245,0.00000322,0.00020112,-0.00001357,-0.00002740,-0
 .00010234,0.00003419,-0.00007679,-0.01222140,-0.00130813,0.03081767,-0
 .00233276,-0.00026055,0.00122206,-0.00016573,0.00043048,0.00019149,0.0
 0060818,-0.00283029,-0.00677800,0.02269144,-0.06463193,-0.06522921,-0.
 00019082,-0.00002565,0.00009882,0.00005360,0.00002551,0.00001402,-0.00
 081159,0.00046120,0.00062477,0.00005132,-0.00028849,-0.00007153,-0.000
 82772,-0.00097049,-0.00111966,0.00006813,0.00015044,0.00008142,0.00000
 478,0.00001775,-0.00000489,-0.00001513,0.00005418,0.00013167,0.0004077
 9,-0.00038430,0.00082286,0.00002773,-0.00001765,-0.00010171,0.00027529
 ,0.00030849,-0.00014884,-0.00007496,0.00028441,-0.00014774,-0.00160664
 ,0.00075733,-0.00079314,0.00563849,-0.00492917,-0.02334349,-0.01235782
 ,0.07333794,0.00098810,-0.00018583,0.00007784,-0.00346761,-0.00067816,
 -0.00146698,0.00076679,0.00023757,-0.00016812,-0.00027313,0.00009588,0
 .00018711,0.00035516,0.00007489,-0.00012289,-0.00045573,0.00004106,0.0
 0000143,0.00019722,-0.00009029,0.00019497,0.00825319,0.01149553,-0.011
 24585,0.00173569,-0.00074059,-0.00087266,0.00074867,0.00013741,0.00013
 705,0.00222919,-0.00642771,-0.01472673,0.05843879,-0.06312501,-0.27692
 047,0.00017910,0.00006235,-0.00008481,-0.00008997,-0.00002154,0.000008
 44,0.00071679,-0.00069566,-0.00108499,0.00003129,0.00024970,0.00023580
 ,-0.00465047,-0.00179936,-0.00117345,-0.00005408,-0.00011266,-0.000024
 69,-0.00000984,-0.00002091,0.00000608,-0.00004095,-0.00001224,-0.00011
 687,-0.00039974,0.00020073,-0.00061057,-0.00025477,0.00006857,0.000218
 95,-0.00032198,0.00058318,-0.00012845,-0.00001676,-0.00016410,0.001046
 54,-0.00267807,0.00009894,-0.00022473,-0.00043377,-0.00138312,0.000381
 37,-0.06147764,0.06191692,0.30664924,0.00019009,-0.00005707,0.00004896
 ,-0.00047540,0.00026402,-0.00046595,-0.00021849,-0.00100390,0.00159137
 ,-0.00563454,0.00081636,-0.00121396,-0.00074562,0.00041000,-0.00067854
 ,0.00023029,-0.00016304,0.00024682,0.00008612,-0.00006727,0.00012365,-
 0.00006963,-0.00013019,0.00015280,0.00003359,-0.00004064,0.00004462,0.
 00000358,-0.00000181,-0.00000214,-0.00000709,-0.00000538,0.00001442,-0
 .00001670,0.00004130,-0.00001574,-0.01531870,-0.02529944,0.03810364,-0
 .04576128,0.00066272,-0.00088286,0.00009651,0.00008486,-0.00013236,0.0
 0000819,-0.00005442,0.00006820,-0.00002577,0.00000083,0.00004343,-0.00
 000878,0.00002744,-0.00002792,0.00078387,0.00011169,-0.00012199,0.0000
 0572,0.00000190,-0.00000148,0.00000523,0.00000233,-0.00000385,-0.00000
 816,-0.00000158,-0.00000249,-0.00000265,-0.00000147,0.00000334,-0.0000
 0649,-0.00000383,-0.00000298,-0.00000022,-0.00000025,-0.00000300,-0.00
 000571,-0.00000194,0.00000066,-0.00001068,-0.00000991,0.00000741,0.062
 53333,-0.00013839,-0.00008580,0.00005619,0.00012468,0.00010266,-0.0000
 0296,-0.00006114,0.00001270,0.00030923,-0.00019403,0.00098560,-0.00096
 350,0.00006631,0.00027108,0.00027769,-0.00000817,0.00026009,-0.0001076
 2,0.00004522,-0.00000836,0.00009304,-0.00017340,-0.00006494,0.00002063
 ,0.00002972,-0.00002201,0.00005491,0.00000427,-0.00000211,-0.00000458,
 -0.00000492,-0.00000037,0.00001666,0.00000936,0.00002733,-0.00005338,-
 0.00325157,-0.00198046,0.00363899,-0.00733454,-0.13542609,0.12692647,0
 .00003633,0.00003371,-0.00018386,0.00000475,-0.00005585,0.00008196,-0.
 00003535,0.00001143,0.00006022,-0.00001241,0.00000458,0.00000357,-0.00
 017120,-0.00033545,-0.00025305,0.00000238,0.00000170,-0.00000567,-0.00
 000044,0.00000164,-0.00001355,-0.00000782,0.00000003,-0.00000309,-0.00
 000051,-0.00000045,0.00000197,-0.00000791,-0.00000404,-0.00000121,0.00
 000096,-0.00000121,-0.00000380,0.00000042,-0.00000068,0.00000338,-0.00
 000191,-0.00000428,0.00000718,0.01044568,0.13933432,0.00017205,0.00006
 087,-0.00011696,-0.00018438,-0.00004748,0.00009195,0.00012215,0.000309
 44,-0.00024272,0.00010919,-0.00103404,0.00186929,-0.00012128,0.0002722
 0,0.00001154,0.00000947,-0.00008874,0.00036626,-0.00006573,0.00008709,
 -0.00009719,0.00029020,0.00001726,-0.00007234,-0.00005391,0.00006189,-
 0.00005745,-0.00000462,-0.00000106,0.00000710,0.00000106,-0.00000187,-
 0.00001437,-0.00002463,-0.00005882,0.00005246,0.00471429,0.00329151,-0
 .00439242,0.01125963,0.12706573,-0.24571759,-0.00005860,-0.00011536,0.
 00023037,0.00000219,0.00007367,-0.00010149,0.00006119,-0.00000891,-0.0
 0010770,0.00001638,0.00001136,0.00000356,0.00028027,-0.00025068,-0.000
 09761,0.00000131,-0.00000815,0.00000579,-0.00000130,-0.00000701,0.0000
 1414,0.00000957,0.00000170,0.00000532,0.00000247,0.00000124,-0.0000061
 4,0.00000972,0.00000497,-0.00000025,-0.00000084,-0.00000126,0.00000410
 ,-0.00000191,0.00000274,-0.00000108,0.00000569,0.00001224,-0.00001471,
 -0.01556848,-0.13988953,0.26055823,0.00037887,-0.00028408,0.00045752,0
 .00017263,0.00021764,-0.00099514,-0.00122409,-0.00119993,0.00071755,0.
 00215453,0.00528542,-0.00562606,0.00093728,-0.00065640,0.00042586,-0.0
 0032633,-0.00037482,0.00009410,0.00009473,-0.00003925,0.00010035,-0.00
 019165,-0.00000516,0.00014014,0.00004510,-0.00004707,0.00004829,0.0000
 1394,-0.00000419,-0.00000222,-0.00000733,0.00000686,0.00001617,0.00002
 813,0.00004971,-0.00001204,-0.03599794,0.02634273,0.01117566,-0.092186
 25,0.09207978,0.01425417,0.00013409,0.00023418,-0.00030511,0.00001399,
 -0.00012738,0.00014633,-0.00007548,-0.00000230,0.00013790,0.00016959,0
 .00020326,0.00012961,0.00008756,0.00006093,0.00062523,0.00001889,-0.00
 000903,-0.00001309,0.00001204,0.00001408,-0.00000825,-0.00001113,-0.00
 000121,-0.00000433,-0.00000523,-0.00000347,0.00000671,-0.00000784,-0.0
 0000905,0.00000198,-0.00000005,-0.00000026,-0.00000722,-0.00001526,-0.
 00000660,0.00000511,-0.00001462,-0.00001709,0.00001088,0.00221717,-0.0
 0097764,-0.00132653,0.11538266,0.00045412,0.00012116,-0.00010816,0.000
 03659,0.00003736,-0.00038039,-0.00033602,-0.00033603,-0.00016945,-0.00
 002530,0.00117497,0.00077437,0.00115364,0.00002340,0.00003752,-0.00077
 043,-0.00047438,0.00020237,-0.00004748,0.00011799,-0.00006038,-0.00021
 521,0.00002600,0.00005285,0.00003357,-0.00003664,0.00003112,-0.0000007
 4,0.00000362,-0.00000051,0.00000540,-0.00000792,-0.00000176,0.00000680
 ,0.00001003,-0.00001398,-0.00029905,0.01209687,0.00122157,0.09902764,-
 0.26310433,-0.03285464,-0.00009766,-0.00014175,0.00029930,-0.00003791,
 0.00010557,-0.00013432,0.00005250,0.00000955,-0.00006429,-0.00005200,0
 .00002944,0.00005038,-0.00079249,0.00022792,0.00073355,-0.00000349,0.0
 0001531,0.00000209,0.00000364,-0.00000368,-0.00001780,0.00000156,-0.00
 000193,0.00000106,0.00000086,0.00000117,-0.00000173,0.00000085,0.00000
 238,-0.00000151,-0.00000012,0.00000116,0.00000285,-0.00000101,-0.00001
 591,-0.00000315,-0.00000247,-0.00000508,0.00000171,0.00562690,-0.01364
 186,-0.00347107,-0.10963350,0.27674573,-0.00070499,-0.00002231,0.00000
 333,0.00021412,-0.00024532,0.00066923,0.00053885,0.00049019,-0.0004835
 7,-0.00007901,-0.00266177,0.00205367,-0.00029274,-0.00027200,0.0002257
 7,0.00044063,0.00073684,-0.00049826,-0.00003656,-0.00009163,0.00007326
 ,-0.00009816,-0.00000882,-0.00005985,0.00000848,-0.00001381,0.00002940
 ,-0.00000186,-0.00000109,-0.00000847,-0.00000156,0.00000787,0.00000969
 ,0.00000471,0.00001965,-0.00003296,0.00687959,-0.00305847,-0.00058532,
 0.01354496,-0.03007935,-0.05737067,0.00002461,-0.00000249,-0.00025125,
 -0.00000053,-0.00004501,0.00009420,-0.00005935,0.00002946,0.00008412,-
 0.00007038,-0.00004245,-0.00003391,0.00031823,-0.00029880,-0.00192249,
 -0.00000790,0.00000300,-0.00000465,-0.00001077,0.00000238,-0.00000780,
 -0.00000574,0.00000129,-0.00000251,0.00000068,-0.00000038,0.00000180,-
 0.00000492,-0.00000166,-0.00000094,0.00000016,-0.00000160,-0.00000280,
 0.00001083,0.00001094,0.00000249,0.00000539,-0.00000127,0.00000609,-0.
 01186139,0.02408476,0.00599375,-0.01893625,0.03425542,0.05482198,0.000
 37374,-0.00037492,0.00044107,0.00009791,0.00087316,-0.00059096,-0.0013
 2984,-0.00020689,0.00133837,0.00214244,0.00314876,-0.00695566,0.000971
 29,-0.00016199,0.00081076,-0.00034215,0.00003885,0.00034121,0.00009583
 ,-0.00005205,0.00009917,-0.00010009,-0.00010006,0.00009006,0.00003155,
 -0.00004292,0.00003077,0.00000897,0.00000109,0.00000177,-0.00000801,-0
 .00000370,0.00001674,0.00002406,0.00001415,-0.00006206,-0.03529221,-0.
 02137576,-0.02024197,-0.08857596,-0.04820246,-0.07572066,0.00014990,0.
 00010230,-0.00040533,0.00001698,-0.00011670,0.00018713,-0.00007997,0.0
 0003038,0.00014370,0.00019991,-0.00022765,-0.00012872,0.00009666,-0.00
 062768,0.00018238,0.00001138,-0.00000318,-0.00000959,0.00001525,0.0000
 1960,0.00001055,-0.00000898,-0.00000126,-0.00000476,-0.00000870,-0.000
 00372,0.00000924,-0.00001017,-0.00000823,0.00000082,0.00000105,0.00000
 217,-0.00000500,-0.00001620,-0.00000463,0.00000658,-0.00000863,-0.0000
 0431,0.00000887,0.00212983,0.00160935,0.00034527,0.00821469,0.00590228
 ,0.01017536,0.11120828,0.00045065,-0.00005650,0.00004768,-0.00021532,0
 .00030715,-0.00042902,-0.00038575,-0.00032695,0.00052461,0.00010898,0.
 00130306,-0.00274741,-0.00018684,0.00004109,-0.00029606,-0.00010879,-0
 .00012161,0.00059425,0.00006470,0.00002136,-0.00003135,0.00018124,-0.0
 0001821,0.00003072,-0.00002074,0.00002709,-0.00004078,0.00000136,-0.00
 000044,0.00000779,-0.00000092,-0.00000552,-0.00000902,-0.00000616,-0.0
 0003068,0.00002769,-0.00681222,0.00035802,0.00144293,-0.05032674,-0.11
 468791,-0.09711196,0.00003254,-0.00002720,0.00004301,0.00001808,0.0000
 1125,-0.00000740,0.00002791,-0.00000196,-0.00004090,0.00009246,-0.0000
 2626,-0.00002588,0.00004023,-0.00144786,0.00046911,0.00000761,-0.00000
 673,0.00000358,0.00000785,0.00000028,0.00001767,0.00000457,-0.00000006
 ,0.00000189,-0.00000193,0.00000021,-0.00000015,0.00000356,0.00000088,0
 .00000160,0.00000103,0.00000162,0.00000275,-0.00001021,-0.00000236,-0.
 00000180,-0.00000471,0.00000506,-0.00000575,0.00835187,0.01058948,0.01
 370649,-0.01109148,-0.01298536,-0.02278902,0.05978552,0.11708168,-0.00
 063274,-0.00013124,0.00006000,0.00009913,-0.00039971,0.00044050,0.0005
 8475,-0.00010694,-0.00041495,-0.00005281,0.00073639,0.00189462,-0.0011
 5101,0.00004252,0.00006521,0.00084334,0.00003489,-0.00078323,0.0000288
 0,-0.00001859,0.00014392,0.00012439,0.00000639,-0.00003666,-0.00001737
 ,-0.00000347,-0.00004667,-0.00000065,-0.00000120,-0.00000205,-0.000001
 76,0.00000771,-0.00000090,-0.00000996,0.00001643,0.00001713,0.00243840
 ,0.00595398,0.01067460,-0.08229462,-0.09992992,-0.20933509,0.00011341,
 0.00018201,-0.00028296,0.00000961,-0.00007406,0.00012288,-0.00008841,0
 .00000189,0.00013193,0.00001252,0.00006364,0.00000872,0.00080128,0.001
 52560,-0.00027294,-0.00000228,-0.00000701,0.00000036,-0.00000741,0.000
 00860,0.00001766,-0.00000146,0.00000077,-0.00000259,-0.00000320,-0.000
 00127,0.00000553,-0.00000252,-0.00000148,0.00000217,0.00000104,0.00000
 198,-0.00000066,0.00000974,0.00002158,-0.00000034,-0.00000098,-0.00000
 147,0.00000469,-0.00945375,-0.01414035,-0.01818813,-0.00123813,-0.0003
 9601,-0.00279483,0.08990847,0.10661697,0.21858520,-0.00007708,0.003877
 92,0.00440977,-0.00022152,0.00007982,0.00027519,-0.00032290,-0.0002312
 9,-0.00008078,0.00000642,0.00009660,-0.00008785,0.00006330,-0.00039780
 ,0.00006545,0.00139710,0.00006215,0.00063276,-0.00055728,0.00050038,-0
 .00074408,-0.00045176,-0.00048725,-0.00003585,0.00005538,-0.00007648,0
 .00001884,0.00001655,0.00000270,-0.00006901,-0.00011412,0.00010640,0.0
 0013999,0.00070044,0.00026904,-0.00124563,-0.00012740,-0.00011766,0.00
 017322,0.00010001,0.00002514,0.00000439,-0.00568347,-0.01274170,0.0339
 4349,-0.00098700,-0.00300169,-0.00653244,-0.03784043,-0.01593410,0.063
 39428,0.00001393,0.00000658,-0.00001784,-0.00000928,-0.00003707,-0.000
 01822,-0.00001482,-0.00000686,0.00000683,-0.00003852,0.00001708,0.0000
 0210,-0.00001474,-0.00000692,0.00003054,-0.00003484,0.00003374,0.00000
 467,-0.00006302,-0.00005414,-0.00003210,0.00006615,0.00000171,0.000086
 46,-0.00000539,0.00010572,0.00019815,-0.00051332,0.00013654,-0.0000426
 3,-0.00000761,0.00000192,0.00000012,-0.00001267,0.00000853,0.00000549,
 -0.00000880,-0.00000836,-0.00001578,0.04468667,0.00372223,-0.00101613,
 -0.00053532,0.00002204,0.00011050,0.00031873,-0.00001341,0.00000620,-0
 .00001663,-0.00007875,0.00005571,-0.00014596,0.00023731,-0.00009614,0.
 00032288,0.00040418,0.00064068,-0.00104879,-0.00018140,-0.00013725,-0.
 00003333,-0.00027037,-0.00037971,0.00004460,-0.00006135,0.00001369,-0.
 00002273,-0.00001792,0.00004439,0.00004405,-0.00005004,-0.00003944,0.0
 0002237,0.00012463,0.00021706,-0.00035947,-0.00008064,-0.00008728,0.00
 012200,0.00007030,0.00001694,-0.00000850,0.00515308,0.02066761,-0.0284
 0046,-0.00179305,-0.00559463,0.00376855,-0.03488813,-0.15109599,0.2137
 6929,0.00000052,0.00000349,0.00000797,0.00001727,0.00006805,-0.0000323
 9,-0.00000411,-0.00002479,0.00002527,0.00000975,-0.00001035,0.00001964
 ,0.00001355,-0.00002310,0.00000784,0.00001744,-0.00001048,-0.00001090,
 -0.00002785,0.00000352,-0.00000350,0.00002223,-0.00000572,0.00001473,0
 .00011501,-0.00008063,-0.00012406,-0.00021186,0.00026379,0.00019131,-0
 .00000577,-0.00000238,0.00000358,-0.00000470,0.00000520,-0.00000454,-0
 .00000953,-0.00000266,-0.00000860,0.02776936,0.13648986,0.00384853,-0.
 00272080,0.00116594,0.00043285,0.00043034,0.00037610,-0.00030515,-0.00
 009410,0.00019934,0.00029434,0.00009984,-0.00022963,0.00022661,0.00008
 072,0.00024213,0.00010677,-0.00009490,-0.00143907,-0.00011673,-0.00014
 697,0.00008574,-0.00027969,-0.00023219,0.00047337,-0.00019223,0.000064
 35,-0.00014433,0.00004205,0.00006631,0.00005430,-0.00024723,-0.0001003
 8,0.00020974,0.00045766,0.00016072,-0.00059097,-0.00025779,-0.00023027
 ,0.00033322,0.00018887,0.00002923,-0.00003978,0.01426974,0.01026124,-0
 .03520268,-0.00693730,0.00443184,0.00413430,0.08361980,0.17601307,-0.3
 7254840,0.00000460,-0.00001400,-0.00000425,0.00000445,0.00012199,0.000
 00357,0.00000777,-0.00004776,0.00003039,0.00002785,-0.00001425,0.00006
 999,0.00002867,-0.00004336,0.00004067,-0.00001680,-0.00000463,-0.00001
 990,0.00000483,-0.00000034,-0.00002198,0.00009478,0.00000784,0.0001043
 9,0.00002561,-0.00011401,-0.00017507,-0.00081011,0.00001810,-0.0001686
 4,-0.00001044,-0.00001074,0.00001428,-0.00001918,0.00001295,-0.0000084
 9,-0.00002360,-0.00000223,-0.00001312,-0.09446953,-0.18792760,0.403068
 86\\0.00001037,-0.00002135,-0.00000580,0.00002554,0.00001888,-0.000016
 52,-0.00003349,0.00001004,-0.00000383,0.00003745,-0.00000061,-0.000015
 26,0.00002521,0.00002182,-0.00002451,0.00000565,-0.00000566,0.00000940
 ,0.00000297,0.00000393,-0.00000702,-0.00005816,0.00000879,0.00001829,-
 0.00001030,0.00000057,-0.00002608,-0.00000453,-0.00000515,0.00000133,-
 0.00000814,0.00000361,-0.00001776,-0.00000049,-0.00002850,0.00004101,-
 0.00001422,0.00000970,0.00001749,-0.00000165,-0.00001204,0.00000632,-0
 .00002541,0.00000136,0.00001662,0.00000815,-0.00001153,0.00001169,0.00
 002439,0.00001413,0.00001835,0.00000769,-0.00000211,-0.00000137,-0.000
 00038,-0.00000186,0.00000070,-0.00000072,-0.00001196,0.00000477,0.0000
 0237,0.00000226,0.00000923,0.00000426,0.00000052,0.00000582,0.00000560
 ,-0.00000266,-0.00000542,0.00000979,-0.00000210,-0.00000361,-0.0000023
 9,0.00000273,0.00000391,-0.00000894,0.00000595,-0.00000990,0.00000098,
 0.00000195,-0.00002869,-0.00000134,-0.00000046,0.00000515,-0.00000343,
 0.00000704,0.00000366,-0.00000265,0.00000102,-0.00000610,0.00000581,-0
 .00000831,-0.00000186\\\@
 The archive entry for this job was punched.


 THE 2ND LAW OF THERMODYNAMICS HAS THE SAME
 DEGREE OF TRUTH AS THE STATEMENT THAT IF YOU THROW
 A TUMBLERFULL OF WATER INTO THE SEA, YOU CANNOT GET
 THE SAME TUMBLERFULL OF WATER OUT AGAIN.
          - J.C. MAXWELL, LETTER TO LORD RAYLEIGH, DECEMBER 6,1870
 Job cpu time:       3 days 17 hours 20 minutes  9.6 seconds.
 Elapsed time:       0 days  4 hours 28 minutes  1.5 seconds.
 File lengths (MBytes):  RWF=   2140 Int=      0 D2E=      0 Chk=    109 Scr=      1
 Normal termination of Gaussian 16 at Wed Mar  5 07:08:52 2025.
