 Entering Gaussian System, Link 0=g16
 Initial command:
 /usr/local/gaussian16c01/g16/l1.exe "/scr/dhuang/Gau-66975.inp" -scrdir="/scr/dhuang/"
 Entering Link 1 = /usr/local/gaussian16c01/g16/l1.exe PID=     66977.
  
 Copyright (c) 1988-2019, Gaussian, Inc.  All Rights Reserved.
  
 This is part of the Gaussian(R) 16 program.  It is based on
 the Gaussian(R) 09 system (copyright 2009, Gaussian, Inc.),
 the Gaussian(R) 03 system (copyright 2003, Gaussian, Inc.),
 the Gaussian(R) 98 system (copyright 1998, Gaussian, Inc.),
 the Gaussian(R) 94 system (copyright 1995, Gaussian, Inc.),
 the Gaussian 92(TM) system (copyright 1992, Gaussian, Inc.),
 the Gaussian 90(TM) system (copyright 1990, Gaussian, Inc.),
 the Gaussian 88(TM) system (copyright 1988, Gaussian, Inc.),
 the Gaussian 86(TM) system (copyright 1986, Carnegie Mellon
 University), and the Gaussian 82(TM) system (copyright 1983,
 Carnegie Mellon University). Gaussian is a federally registered
 trademark of Gaussian, Inc.
  
 This software contains proprietary and confidential information,
 including trade secrets, belonging to Gaussian, Inc.
  
 This software is provided under written license and may be
 used, copied, transmitted, or stored only in accord with that
 written license.
  
 The following legend is applicable only to US Government
 contracts under FAR:
  
                    RESTRICTED RIGHTS LEGEND
  
 Use, reproduction and disclosure by the US Government is
 subject to restrictions as set forth in subparagraphs (a)
 and (c) of the Commercial Computer Software - Restricted
 Rights clause in FAR 52.227-19.
  
 Gaussian, Inc.
 340 Quinnipiac St., Bldg. 40, Wallingford CT 06492
  
  
 ---------------------------------------------------------------
 Warning -- This program may not be used in any manner that
 competes with the business of Gaussian, Inc. or will provide
 assistance to any competitor of Gaussian, Inc.  The licensee
 of this program is prohibited from giving any competitor of
 Gaussian, Inc. access to this program.  By using this program,
 the user acknowledges that Gaussian, Inc. is engaged in the
 business of creating and licensing software in the field of
 computational chemistry and represents and warrants to the
 licensee that it is not a competitor of Gaussian, Inc. and that
 it will not use this program in any manner prohibited above.
 ---------------------------------------------------------------
  

 Cite this work as:
 Gaussian 16, Revision C.01,
 M. J. Frisch, G. W. Trucks, H. B. Schlegel, G. E. Scuseria, 
 M. A. Robb, J. R. Cheeseman, G. Scalmani, V. Barone, 
 G. A. Petersson, H. Nakatsuji, X. Li, M. Caricato, A. V. Marenich, 
 J. Bloino, B. G. Janesko, R. Gomperts, B. Mennucci, H. P. Hratchian, 
 J. V. Ortiz, A. F. Izmaylov, J. L. Sonnenberg, D. Williams-Young, 
 F. Ding, F. Lipparini, F. Egidi, J. Goings, B. Peng, A. Petrone, 
 T. Henderson, D. Ranasinghe, V. G. Zakrzewski, J. Gao, N. Rega, 
 G. Zheng, W. Liang, M. Hada, M. Ehara, K. Toyota, R. Fukuda, 
 J. Hasegawa, M. Ishida, T. Nakajima, Y. Honda, O. Kitao, H. Nakai, 
 T. Vreven, K. Throssell, J. A. Montgomery, Jr., J. E. Peralta, 
 F. Ogliaro, M. J. Bearpark, J. J. Heyd, E. N. Brothers, K. N. Kudin, 
 V. N. Staroverov, T. A. Keith, R. Kobayashi, J. Normand, 
 K. Raghavachari, A. P. Rendell, J. C. Burant, S. S. Iyengar, 
 J. Tomasi, M. Cossi, J. M. Millam, M. Klene, C. Adamo, R. Cammi, 
 J. W. Ochterski, R. L. Martin, K. Morokuma, O. Farkas, 
 J. B. Foresman, and D. J. Fox, Gaussian, Inc., Wallingford CT, 2019.
 
 ******************************************
 Gaussian 16:  ES64L-G16RevC.01  3-Jul-2019
                 4-Mar-2025 
 ******************************************
 %nprocshared=20
 Will use up to   20 processors via shared memory.
 %mem=10000MW
 %chk=3.chk
 ------------------------------------
 # opt freq m062x/aug-cc-pvtz pop=nbo
 ------------------------------------
 1/18=20,19=15,26=3,38=1/1,3;
 2/9=110,12=2,17=6,18=5,40=1/2;
 3/5=16,6=1,7=10,11=2,25=1,30=1,71=1,74=-55/1,2,3;
 4//1;
 5/5=2,38=5/2;
 6/7=2,8=2,9=2,10=2,28=1,40=1/1,7;
 7//1,2,3,16;
 1/18=20,19=15,26=3/3(2);
 2/9=110/2;
 99//99;
 2/9=110/2;
 3/5=16,6=1,7=10,11=2,25=1,30=1,71=1,74=-55/1,2,3;
 4/5=5,16=3,69=1/1;
 5/5=2,38=5/2;
 7//1,2,3,16;
 1/18=20,19=15,26=3/3(-5);
 2/9=110/2;
 6/7=2,8=2,9=2,10=2,19=2,28=1,40=1/1,7;
 99/9=1/99;
 -
 3
 -
 Symbolic Z-matrix:
 Charge =  0 Multiplicity = 1
 C                    -2.12559   0.31567  -4.49982 
 N                    -2.09904   0.37271  -3.03107 
 C                    -2.12104   1.48258  -2.42327 
 N                    -2.09021   1.24966  -1.18266 
 C                    -2.05001  -0.01575  -1.07861 
 N                    -2.05556  -0.559    -2.2267 
 C                    -2.0062   -0.7437    0.0738 
 O                    -2.0018   -0.1942    1.16021 
 O                    -1.9671   -2.0998    0.0076 
 H                    -2.17889   1.32158  -4.97364 
 H                    -1.20675  -0.19217  -4.87199 
 H                    -3.01101  -0.27023  -4.83643 
 H                    -2.15999   2.46653  -2.90222 
 H                    -1.93864  -2.47991   0.90011 
 

 GradGradGradGradGradGradGradGradGradGradGradGradGradGradGradGradGradGrad
 Berny optimization.
 Initialization pass.
                           ----------------------------
                           !    Initial Parameters    !
                           ! (Angstroms and Degrees)  !
 --------------------------                            --------------------------
 ! Name  Definition              Value          Derivative Info.                !
 --------------------------------------------------------------------------------
 ! R1    R(1,2)                  1.4701         estimate D2E/DX2                !
 ! R2    R(1,10)                 1.1132         estimate D2E/DX2                !
 ! R3    R(1,11)                 1.1139         estimate D2E/DX2                !
 ! R4    R(1,12)                 1.1138         estimate D2E/DX2                !
 ! R5    R(2,3)                  1.2656         estimate D2E/DX2                !
 ! R6    R(2,6)                  1.2317         estimate D2E/DX2                !
 ! R7    R(3,4)                  1.2627         estimate D2E/DX2                !
 ! R8    R(3,13)                 1.095          estimate D2E/DX2                !
 ! R9    R(4,5)                  1.2703         estimate D2E/DX2                !
 ! R10   R(5,6)                  1.2701         estimate D2E/DX2                !
 ! R11   R(5,7)                  1.3638         estimate D2E/DX2                !
 ! R12   R(7,8)                  1.2175         estimate D2E/DX2                !
 ! R13   R(7,9)                  1.3583         estimate D2E/DX2                !
 ! R14   R(9,14)                 0.9705         estimate D2E/DX2                !
 ! A1    A(2,1,10)             113.02           estimate D2E/DX2                !
 ! A2    A(2,1,11)             109.6712         estimate D2E/DX2                !
 ! A3    A(2,1,12)             109.6764         estimate D2E/DX2                !
 ! A4    A(10,1,11)            108.0149         estimate D2E/DX2                !
 ! A5    A(10,1,12)            107.9769         estimate D2E/DX2                !
 ! A6    A(11,1,12)            108.3585         estimate D2E/DX2                !
 ! A7    A(1,2,3)              120.8987         estimate D2E/DX2                !
 ! A8    A(1,2,6)              128.5915         estimate D2E/DX2                !
 ! A9    A(3,2,6)              110.5098         estimate D2E/DX2                !
 ! A10   A(2,3,4)              108.0392         estimate D2E/DX2                !
 ! A11   A(2,3,13)             125.3502         estimate D2E/DX2                !
 ! A12   A(4,3,13)             126.6106         estimate D2E/DX2                !
 ! A13   A(3,4,5)              105.3672         estimate D2E/DX2                !
 ! A14   A(4,5,6)              110.6022         estimate D2E/DX2                !
 ! A15   A(4,5,7)              127.0092         estimate D2E/DX2                !
 ! A16   A(6,5,7)              122.3886         estimate D2E/DX2                !
 ! A17   A(2,6,5)              105.4817         estimate D2E/DX2                !
 ! A18   A(5,7,8)              120.88           estimate D2E/DX2                !
 ! A19   A(5,7,9)              119.5156         estimate D2E/DX2                !
 ! A20   A(8,7,9)              119.6045         estimate D2E/DX2                !
 ! A21   A(7,9,14)             110.3078         estimate D2E/DX2                !
 ! D1    D(10,1,2,3)            -0.7619         estimate D2E/DX2                !
 ! D2    D(10,1,2,6)           179.2202         estimate D2E/DX2                !
 ! D3    D(11,1,2,3)           119.8179         estimate D2E/DX2                !
 ! D4    D(11,1,2,6)           -60.2            estimate D2E/DX2                !
 ! D5    D(12,1,2,3)          -121.2969         estimate D2E/DX2                !
 ! D6    D(12,1,2,6)            58.6852         estimate D2E/DX2                !
 ! D7    D(1,2,3,4)            179.994          estimate D2E/DX2                !
 ! D8    D(1,2,3,13)            -0.0099         estimate D2E/DX2                !
 ! D9    D(6,2,3,4)              0.0089         estimate D2E/DX2                !
 ! D10   D(6,2,3,13)          -179.995          estimate D2E/DX2                !
 ! D11   D(1,2,6,5)           -179.9899         estimate D2E/DX2                !
 ! D12   D(3,2,6,5)             -0.0063         estimate D2E/DX2                !
 ! D13   D(2,3,4,5)             -0.0075         estimate D2E/DX2                !
 ! D14   D(13,3,4,5)           179.9965         estimate D2E/DX2                !
 ! D15   D(3,4,5,6)              0.0038         estimate D2E/DX2                !
 ! D16   D(3,4,5,7)           -179.9857         estimate D2E/DX2                !
 ! D17   D(4,5,6,2)              0.0015         estimate D2E/DX2                !
 ! D18   D(7,5,6,2)            179.9916         estimate D2E/DX2                !
 ! D19   D(4,5,7,8)             -0.0234         estimate D2E/DX2                !
 ! D20   D(4,5,7,9)            179.9704         estimate D2E/DX2                !
 ! D21   D(6,5,7,8)            179.9883         estimate D2E/DX2                !
 ! D22   D(6,5,7,9)             -0.0179         estimate D2E/DX2                !
 ! D23   D(5,7,9,14)           180.0            estimate D2E/DX2                !
 ! D24   D(8,7,9,14)            -0.0061         estimate D2E/DX2                !
 --------------------------------------------------------------------------------
 Trust Radius=3.00D-01 FncErr=1.00D-07 GrdErr=1.00D-06 EigMax=2.50D+02 EigMin=1.00D-04
 Number of steps in this run=     69 maximum allowed number of steps=    100.
 GradGradGradGradGradGradGradGradGradGradGradGradGradGradGradGradGradGrad

                          Input orientation:                          
 ---------------------------------------------------------------------
 Center     Atomic      Atomic             Coordinates (Angstroms)
 Number     Number       Type             X           Y           Z
 ---------------------------------------------------------------------
      1          6           0       -2.125587    0.315665   -4.499819
      2          7           0       -2.099040    0.372707   -3.031065
      3          6           0       -2.121040    1.482576   -2.423268
      4          7           0       -2.090207    1.249656   -1.182655
      5          6           0       -2.050012   -0.015753   -1.078607
      6          7           0       -2.055562   -0.559000   -2.226703
      7          6           0       -2.006200   -0.743700    0.073800
      8          8           0       -2.001799   -0.194195    1.160208
      9          8           0       -1.967100   -2.099800    0.007600
     10          1           0       -2.178888    1.321578   -4.973639
     11          1           0       -1.206751   -0.192171   -4.871995
     12          1           0       -3.011011   -0.270225   -4.836429
     13          1           0       -2.159986    2.466533   -2.902218
     14          1           0       -1.938636   -2.479914    0.900111
 ---------------------------------------------------------------------
                    Distance matrix (angstroms):
                    1          2          3          4          5
     1  C    0.000000
     2  N    1.470100   0.000000
     3  C    2.381967   1.265587   0.000000
     4  N    3.446327   2.045908   1.262665   0.000000
     5  C    3.438058   1.991331   2.014485   1.270316   0.000000
     6  N    2.436596   1.231653   2.052062   2.088653   1.270147
     7  C    4.696221   3.300784   3.347364   2.357797   1.363770
     8  O    5.684292   4.230556   3.958166   2.753458   2.246432
     9  O    5.116289   3.919718   4.332001   3.556785   2.351589
    10  H    1.113197   2.163405   2.556102   3.792703   4.120235
    11  H    1.113854   2.122330   3.104346   4.058397   3.889988
    12  H    1.113799   2.122355   3.112508   4.063002   3.887095
    13  H    2.679504   2.098672   1.095025   2.107737   3.082109
    14  H    6.083540   4.859766   5.174887   4.274410   3.162249
                    6          7          8          9         10
     6  N    0.000000
     7  C    2.308433   0.000000
     8  O    3.406924   1.217480   0.000000
     9  O    2.715510   1.358278   2.227339   0.000000
    10  H    3.331282   5.456357   6.320839   6.046769   0.000000
    11  H    2.802252   5.040257   6.084371   5.294112   1.801892
    12  H    2.794092   5.034300   6.081443   5.282207   1.801414
    13  H    3.101786   4.380174   4.858786   5.418085   2.366868
    14  H    3.671586   1.924005   2.301337   0.970501   7.000714
                   11         12         13         14
    11  H    0.000000
    12  H    1.806297   0.000000
    13  H    3.443455   3.457638   0.000000
    14  H    6.251930   6.240241   6.242919   0.000000
 Stoichiometry    C4H5N3O2
 Framework group  C1[X(C4H5N3O2)]
 Deg. of freedom    36
 Full point group                 C1      NOp   1
 Largest Abelian subgroup         C1      NOp   1
 Largest concise Abelian subgroup C1      NOp   1
                         Standard orientation:                         
 ---------------------------------------------------------------------
 Center     Atomic      Atomic             Coordinates (Angstroms)
 Number     Number       Type             X           Y           Z
 ---------------------------------------------------------------------
      1          6           0        2.915823   -0.742466   -0.000025
      2          7           0        1.569171   -0.152784    0.000126
      3          6           0        1.409440    1.102683   -0.000203
      4          7           0        0.169092    1.339033   -0.000101
      5          6           0       -0.390877    0.198798    0.000134
      6          7           0        0.479279   -0.726459    0.000255
      7          6           0       -1.730251   -0.058000    0.000051
      8          8           0       -2.540687    0.850543    0.000149
      9          8           0       -2.164879   -1.344863   -0.000272
     10          1           0        3.725511    0.021350   -0.014067
     11          1           0        3.050307   -1.370338    0.910119
     12          1           0        3.040609   -1.392214   -0.896019
     13          1           0        2.215472    1.843893   -0.000460
     14          1           0       -3.134980   -1.372736   -0.000293
 ---------------------------------------------------------------------
 Rotational constants (GHZ):           4.7757616           1.1794153           0.9516904
 Standard basis: Aug-CC-pVTZ (5D, 7F)
 There are   620 symmetry adapted cartesian basis functions of A   symmetry.
 There are   529 symmetry adapted basis functions of A   symmetry.
   529 basis functions,   783 primitive gaussians,   620 cartesian basis functions
    33 alpha electrons       33 beta electrons
       nuclear repulsion energy       452.1303811000 Hartrees.
 NAtoms=   14 NActive=   14 NUniq=   14 SFac= 1.00D+00 NAtFMM=   60 NAOKFM=F Big=F
 Integral buffers will be    131072 words long.
 Raffenetti 2 integral format.
 Two-electron integral symmetry is turned on.
 One-electron integrals computed using PRISM.
 NBasis=   529 RedAO= T EigKep=  2.30D-06  NBF=   529
 NBsUse=   529 1.00D-06 EigRej= -1.00D+00 NBFU=   529
 ExpMin= 2.53D-02 ExpMax= 1.53D+04 ExpMxC= 5.22D+02 IAcc=3 IRadAn=         5 AccDes= 0.00D+00
 Harris functional with IExCor= 1009 and IRadAn=       5 diagonalized for initial guess.
 HarFok:  IExCor= 1009 AccDes= 0.00D+00 IRadAn=         5 IDoV= 1 UseB2=F ITyADJ=14
 ICtDFT=  3500011 ScaDFX=  1.000000  1.000000  1.000000  1.000000
 FoFCou: FMM=F IPFlag=           0 FMFlag=      100000 FMFlg1=           0
         NFxFlg=           0 DoJE=T BraDBF=F KetDBF=T FulRan=T
         wScrn=  0.000000 ICntrl=       500 IOpCl=  0 I1Cent=   200000004 NGrid=           0
         NMat0=    1 NMatS0=      1 NMatT0=    0 NMatD0=    1 NMtDS0=    0 NMtDT0=    0
 Petite list used in FoFCou.
 Requested convergence on RMS density matrix=1.00D-08 within 128 cycles.
 Requested convergence on MAX density matrix=1.00D-06.
 Requested convergence on             energy=1.00D-06.
 No special actions if energy rises.
 SCF Done:  E(RM062X) =  -470.087034972     A.U. after   13 cycles
            NFock= 13  Conv=0.80D-08     -V/T= 2.0024

 **********************************************************************

            Population analysis using the SCF Density.

 **********************************************************************

 Orbital symmetries:
       Occupied  (A) (A) (A) (A) (A) (A) (A) (A) (A) (A) (A) (A)
                 (A) (A) (A) (A) (A) (A) (A) (A) (A) (A) (A) (A)
                 (A) (A) (A) (A) (A) (A) (A) (A) (A)
       Virtual   (A) (A) (A) (A) (A) (A) (A) (A) (A) (A) (A) (A)
                 (A) (A) (A) (A) (A) (A) (A) (A) (A) (A) (A) (A)
                 (A) (A) (A) (A) (A) (A) (A) (A) (A) (A) (A) (A)
                 (A) (A) (A) (A) (A) (A) (A) (A) (A) (A) (A) (A)
                 (A) (A) (A) (A) (A) (A) (A) (A) (A) (A) (A) (A)
                 (A) (A) (A) (A) (A) (A) (A) (A) (A) (A) (A) (A)
                 (A) (A) (A) (A) (A) (A) (A) (A) (A) (A) (A) (A)
                 (A) (A) (A) (A) (A) (A) (A) (A) (A) (A) (A) (A)
                 (A) (A) (A) (A) (A) (A) (A) (A) (A) (A) (A) (A)
                 (A) (A) (A) (A) (A) (A) (A) (A) (A) (A) (A) (A)
                 (A) (A) (A) (A) (A) (A) (A) (A) (A) (A) (A) (A)
                 (A) (A) (A) (A) (A) (A) (A) (A) (A) (A) (A) (A)
                 (A) (A) (A) (A) (A) (A) (A) (A) (A) (A) (A) (A)
                 (A) (A) (A) (A) (A) (A) (A) (A) (A) (A) (A) (A)
                 (A) (A) (A) (A) (A) (A) (A) (A) (A) (A) (A) (A)
                 (A) (A) (A) (A) (A) (A) (A) (A) (A) (A) (A) (A)
                 (A) (A) (A) (A) (A) (A) (A) (A) (A) (A) (A) (A)
                 (A) (A) (A) (A) (A) (A) (A) (A) (A) (A) (A) (A)
                 (A) (A) (A) (A) (A) (A) (A) (A) (A) (A) (A) (A)
                 (A) (A) (A) (A) (A) (A) (A) (A) (A) (A) (A) (A)
                 (A) (A) (A) (A) (A) (A) (A) (A) (A) (A) (A) (A)
                 (A) (A) (A) (A) (A) (A) (A) (A) (A) (A) (A) (A)
                 (A) (A) (A) (A) (A) (A) (A) (A) (A) (A) (A) (A)
                 (A) (A) (A) (A) (A) (A) (A) (A) (A) (A) (A) (A)
                 (A) (A) (A) (A) (A) (A) (A) (A) (A) (A) (A) (A)
                 (A) (A) (A) (A) (A) (A) (A) (A) (A) (A) (A) (A)
                 (A) (A) (A) (A) (A) (A) (A) (A) (A) (A) (A) (A)
                 (A) (A) (A) (A) (A) (A) (A) (A) (A) (A) (A) (A)
                 (A) (A) (A) (A) (A) (A) (A) (A) (A) (A) (A) (A)
                 (A) (A) (A) (A) (A) (A) (A) (A) (A) (A) (A) (A)
                 (A) (A) (A) (A) (A) (A) (A) (A) (A) (A) (A) (A)
                 (A) (A) (A) (A) (A) (A) (A) (A) (A) (A) (A) (A)
                 (A) (A) (A) (A) (A) (A) (A) (A) (A) (A) (A) (A)
                 (A) (A) (A) (A) (A) (A) (A) (A) (A) (A) (A) (A)
                 (A) (A) (A) (A) (A) (A) (A) (A) (A) (A) (A) (A)
                 (A) (A) (A) (A) (A) (A) (A) (A) (A) (A) (A) (A)
                 (A) (A) (A) (A) (A) (A) (A) (A) (A) (A) (A) (A)
                 (A) (A) (A) (A) (A) (A) (A) (A) (A) (A) (A) (A)
                 (A) (A) (A) (A) (A) (A) (A) (A) (A) (A) (A) (A)
                 (A) (A) (A) (A) (A) (A) (A) (A) (A) (A) (A) (A)
                 (A) (A) (A) (A) (A) (A) (A) (A) (A) (A) (A) (A)
                 (A) (A) (A) (A)
 The electronic state is 1-A.
 Alpha  occ. eigenvalues --  -19.66607 -19.60770 -14.86697 -14.78464 -14.73932
 Alpha  occ. eigenvalues --  -10.67173 -10.62183 -10.60613 -10.58839  -1.30365
 Alpha  occ. eigenvalues --   -1.22868  -1.13028  -1.06413  -0.99703  -0.87168
 Alpha  occ. eigenvalues --   -0.80852  -0.72902  -0.70610  -0.65144  -0.63553
 Alpha  occ. eigenvalues --   -0.59082  -0.56232  -0.54297  -0.54180  -0.50914
 Alpha  occ. eigenvalues --   -0.50600  -0.47689  -0.41479  -0.40221  -0.38162
 Alpha  occ. eigenvalues --   -0.36142  -0.35260  -0.34812
 Alpha virt. eigenvalues --   -0.01796  -0.00530   0.00355   0.00568   0.00641
 Alpha virt. eigenvalues --    0.01823   0.03932   0.04027   0.04433   0.04998
 Alpha virt. eigenvalues --    0.05921   0.06375   0.07074   0.07508   0.08024
 Alpha virt. eigenvalues --    0.08185   0.08687   0.09185   0.09766   0.09995
 Alpha virt. eigenvalues --    0.10234   0.12259   0.12321   0.12531   0.13266
 Alpha virt. eigenvalues --    0.14165   0.14520   0.15337   0.16279   0.16915
 Alpha virt. eigenvalues --    0.17279   0.17516   0.17632   0.17922   0.19004
 Alpha virt. eigenvalues --    0.19281   0.19947   0.21170   0.21716   0.22392
 Alpha virt. eigenvalues --    0.22609   0.23439   0.23737   0.24863   0.25187
 Alpha virt. eigenvalues --    0.25654   0.26168   0.26624   0.27122   0.27415
 Alpha virt. eigenvalues --    0.27474   0.28051   0.29234   0.30003   0.30447
 Alpha virt. eigenvalues --    0.30910   0.31098   0.32353   0.33617   0.33911
 Alpha virt. eigenvalues --    0.34065   0.34229   0.34583   0.35390   0.36278
 Alpha virt. eigenvalues --    0.36909   0.37169   0.37508   0.37818   0.39009
 Alpha virt. eigenvalues --    0.39795   0.40720   0.41468   0.41934   0.42138
 Alpha virt. eigenvalues --    0.42580   0.43290   0.43356   0.44445   0.44732
 Alpha virt. eigenvalues --    0.45800   0.46748   0.48233   0.48707   0.50998
 Alpha virt. eigenvalues --    0.51298   0.52172   0.52828   0.53570   0.54617
 Alpha virt. eigenvalues --    0.54750   0.56000   0.56226   0.56904   0.57641
 Alpha virt. eigenvalues --    0.59117   0.59517   0.60653   0.60954   0.61179
 Alpha virt. eigenvalues --    0.62487   0.63686   0.64629   0.65949   0.66122
 Alpha virt. eigenvalues --    0.68582   0.69069   0.69289   0.70109   0.71101
 Alpha virt. eigenvalues --    0.71351   0.71756   0.72074   0.73360   0.73565
 Alpha virt. eigenvalues --    0.73812   0.74816   0.75768   0.76395   0.76693
 Alpha virt. eigenvalues --    0.77576   0.78153   0.78834   0.79240   0.79680
 Alpha virt. eigenvalues --    0.80568   0.81590   0.82610   0.82680   0.83076
 Alpha virt. eigenvalues --    0.84195   0.85327   0.86346   0.86452   0.86927
 Alpha virt. eigenvalues --    0.88316   0.89264   0.90837   0.90949   0.92996
 Alpha virt. eigenvalues --    0.94091   0.95004   0.95248   0.95338   0.96426
 Alpha virt. eigenvalues --    0.97134   0.97929   0.98468   0.99048   0.99628
 Alpha virt. eigenvalues --    1.01288   1.01938   1.02996   1.04157   1.04538
 Alpha virt. eigenvalues --    1.05111   1.06153   1.06421   1.08872   1.09006
 Alpha virt. eigenvalues --    1.09556   1.10027   1.11333   1.12107   1.12289
 Alpha virt. eigenvalues --    1.13427   1.13818   1.15023   1.15866   1.18034
 Alpha virt. eigenvalues --    1.19661   1.21372   1.22377   1.22538   1.23672
 Alpha virt. eigenvalues --    1.23710   1.25204   1.26644   1.27620   1.27821
 Alpha virt. eigenvalues --    1.29246   1.32112   1.32146   1.32826   1.32892
 Alpha virt. eigenvalues --    1.33554   1.35193   1.35716   1.36010   1.37809
 Alpha virt. eigenvalues --    1.37937   1.40934   1.41423   1.42329   1.43676
 Alpha virt. eigenvalues --    1.43891   1.44751   1.45340   1.45571   1.48503
 Alpha virt. eigenvalues --    1.48988   1.49932   1.50878   1.52325   1.53572
 Alpha virt. eigenvalues --    1.54053   1.55492   1.55742   1.56732   1.58239
 Alpha virt. eigenvalues --    1.59283   1.61575   1.62587   1.64381   1.65477
 Alpha virt. eigenvalues --    1.66175   1.67720   1.68837   1.68959   1.69580
 Alpha virt. eigenvalues --    1.72872   1.74341   1.74805   1.75680   1.75799
 Alpha virt. eigenvalues --    1.76976   1.79947   1.80004   1.82829   1.83632
 Alpha virt. eigenvalues --    1.85403   1.86792   1.88882   1.89322   1.90345
 Alpha virt. eigenvalues --    1.91703   1.92718   1.93187   1.93479   1.96553
 Alpha virt. eigenvalues --    1.97682   1.98316   1.99999   2.02898   2.04500
 Alpha virt. eigenvalues --    2.05302   2.05721   2.07072   2.07625   2.09760
 Alpha virt. eigenvalues --    2.10347   2.11859   2.13258   2.15607   2.16480
 Alpha virt. eigenvalues --    2.18972   2.19119   2.19918   2.21609   2.22613
 Alpha virt. eigenvalues --    2.24089   2.25217   2.27023   2.29037   2.32290
 Alpha virt. eigenvalues --    2.33591   2.34190   2.34392   2.36872   2.37889
 Alpha virt. eigenvalues --    2.38353   2.38959   2.40139   2.41207   2.44242
 Alpha virt. eigenvalues --    2.46742   2.47016   2.49181   2.50051   2.53621
 Alpha virt. eigenvalues --    2.56881   2.57866   2.60465   2.61685   2.61937
 Alpha virt. eigenvalues --    2.65216   2.68593   2.69086   2.72207   2.73285
 Alpha virt. eigenvalues --    2.73944   2.76950   2.77254   2.79572   2.81778
 Alpha virt. eigenvalues --    2.84835   2.86105   2.88567   2.91462   2.91763
 Alpha virt. eigenvalues --    2.93816   2.93967   3.02928   3.05237   3.06967
 Alpha virt. eigenvalues --    3.10920   3.11389   3.11826   3.13801   3.15907
 Alpha virt. eigenvalues --    3.18491   3.18792   3.19106   3.22773   3.24339
 Alpha virt. eigenvalues --    3.26187   3.26752   3.31521   3.32570   3.33576
 Alpha virt. eigenvalues --    3.35321   3.35521   3.38955   3.39658   3.41865
 Alpha virt. eigenvalues --    3.42799   3.45406   3.46933   3.47274   3.48481
 Alpha virt. eigenvalues --    3.51416   3.53126   3.54652   3.54737   3.57376
 Alpha virt. eigenvalues --    3.58175   3.61444   3.63715   3.64015   3.65187
 Alpha virt. eigenvalues --    3.68564   3.69869   3.70151   3.72162   3.72490
 Alpha virt. eigenvalues --    3.73928   3.76006   3.76386   3.77759   3.78559
 Alpha virt. eigenvalues --    3.80108   3.82721   3.85883   3.87204   3.89756
 Alpha virt. eigenvalues --    3.90512   3.91763   3.93738   3.97262   3.98203
 Alpha virt. eigenvalues --    3.99607   4.00852   4.02297   4.04384   4.04524
 Alpha virt. eigenvalues --    4.10914   4.12115   4.12438   4.16103   4.16836
 Alpha virt. eigenvalues --    4.17064   4.20429   4.22015   4.22587   4.27410
 Alpha virt. eigenvalues --    4.31178   4.33937   4.34167   4.36131   4.36394
 Alpha virt. eigenvalues --    4.39314   4.40002   4.42758   4.45032   4.48262
 Alpha virt. eigenvalues --    4.49571   4.49737   4.50880   4.53232   4.55388
 Alpha virt. eigenvalues --    4.55641   4.59657   4.61941   4.66512   4.66838
 Alpha virt. eigenvalues --    4.68976   4.70138   4.70965   4.73068   4.75251
 Alpha virt. eigenvalues --    4.76065   4.79233   4.82505   4.83035   4.89269
 Alpha virt. eigenvalues --    4.95796   4.96693   4.99652   5.02107   5.03533
 Alpha virt. eigenvalues --    5.04788   5.06096   5.07661   5.10545   5.11754
 Alpha virt. eigenvalues --    5.17053   5.20605   5.23052   5.24483   5.28506
 Alpha virt. eigenvalues --    5.29636   5.33834   5.35090   5.35590   5.40314
 Alpha virt. eigenvalues --    5.40340   5.44845   5.46577   5.47278   5.48988
 Alpha virt. eigenvalues --    5.51153   5.55239   5.58789   5.58845   5.64351
 Alpha virt. eigenvalues --    5.64579   5.68119   5.68872   5.75005   5.75650
 Alpha virt. eigenvalues --    5.77976   5.81629   5.82343   5.92001   5.92154
 Alpha virt. eigenvalues --    5.96114   6.05634   6.08365   6.11819   6.18980
 Alpha virt. eigenvalues --    6.20251   6.21768   6.23084   6.27372   6.28606
 Alpha virt. eigenvalues --    6.31991   6.37739   6.38885   6.40037   6.44414
 Alpha virt. eigenvalues --    6.47643   6.48535   6.51906   6.56839   6.60444
 Alpha virt. eigenvalues --    6.65414   6.70897   6.75651   6.76918   6.80233
 Alpha virt. eigenvalues --    6.83990   6.85784   6.86166   6.89753   6.92279
 Alpha virt. eigenvalues --    7.02891   7.08999   7.09017   7.12453   7.20725
 Alpha virt. eigenvalues --    7.34041   7.39057   7.52242   7.63702   7.65956
 Alpha virt. eigenvalues --    7.85422   8.06632  14.89574  15.70938  16.80881
 Alpha virt. eigenvalues --   17.81552  18.25163  18.80080  19.31368  20.17454
 Alpha virt. eigenvalues --   20.79533
          Condensed to atoms (all electrons):
               1          2          3          4          5          6
     1  C    5.746128   0.540688  -0.182034  -0.075410   0.028681  -0.366562
     2  N    0.540688   9.239054   0.646935  -0.665877  -0.161754  -3.673788
     3  C   -0.182034   0.646935   6.902302   0.370144  -0.701482  -0.425568
     4  N   -0.075410  -0.665877   0.370144   8.100597  -0.437625   0.365042
     5  C    0.028681  -0.161754  -0.701482  -0.437625   6.850209   0.274351
     6  N   -0.366562  -3.673788  -0.425568   0.365042   0.274351  12.415470
     7  C   -0.015052  -0.058009  -0.179629   0.008647  -0.576180  -0.298394
     8  O    0.001442   0.005253   0.003420  -0.210051   0.143967  -0.005408
     9  O   -0.000941  -0.016257   0.012434  -0.014655   0.136917  -0.105154
    10  H    0.341454   0.016116   0.045487  -0.008628  -0.002817  -0.035466
    11  H    0.369114  -0.066255  -0.006380  -0.000888   0.000198   0.031586
    12  H    0.368485  -0.071382  -0.007397  -0.000733   0.000006   0.038103
    13  H   -0.009351   0.033492   0.130566  -0.073807  -0.013742  -0.043645
    14  H   -0.000209  -0.000043  -0.005232   0.013073  -0.085376   0.006007
               7          8          9         10         11         12
     1  C   -0.015052   0.001442  -0.000941   0.341454   0.369114   0.368485
     2  N   -0.058009   0.005253  -0.016257   0.016116  -0.066255  -0.071382
     3  C   -0.179629   0.003420   0.012434   0.045487  -0.006380  -0.007397
     4  N    0.008647  -0.210051  -0.014655  -0.008628  -0.000888  -0.000733
     5  C   -0.576180   0.143967   0.136917  -0.002817   0.000198   0.000006
     6  N   -0.298394  -0.005408  -0.105154  -0.035466   0.031586   0.038103
     7  C    6.449167  -0.007378  -0.045216  -0.003799   0.001377   0.001605
     8  O   -0.007378   9.053427  -0.039375   0.000034   0.000093   0.000087
     9  O   -0.045216  -0.039375   8.464311   0.000093   0.000273   0.000287
    10  H   -0.003799   0.000034   0.000093   0.339945   0.008593   0.007957
    11  H    0.001377   0.000093   0.000273   0.008593   0.325784   0.011527
    12  H    0.001605   0.000087   0.000287   0.007957   0.011527   0.327005
    13  H    0.006248  -0.001152   0.000686  -0.009168   0.000468   0.000492
    14  H    0.114584  -0.097388   0.149449  -0.000009  -0.000001   0.000002
              13         14
     1  C   -0.009351  -0.000209
     2  N    0.033492  -0.000043
     3  C    0.130566  -0.005232
     4  N   -0.073807   0.013073
     5  C   -0.013742  -0.085376
     6  N   -0.043645   0.006007
     7  C    0.006248   0.114584
     8  O   -0.001152  -0.097388
     9  O    0.000686   0.149449
    10  H   -0.009168  -0.000009
    11  H    0.000468  -0.000001
    12  H    0.000492   0.000002
    13  H    0.310093  -0.000199
    14  H   -0.000199   0.615318
 Mulliken charges:
               1
     1  C   -0.746432
     2  N    1.231826
     3  C   -0.603564
     4  N   -0.369829
     5  C    0.544647
     6  N   -1.176575
     7  C    0.602031
     8  O   -0.846970
     9  O   -0.542852
    10  H    0.300207
    11  H    0.324511
    12  H    0.323956
    13  H    0.669019
    14  H    0.290024
 Sum of Mulliken charges =   0.00000
 Mulliken charges with hydrogens summed into heavy atoms:
               1
     1  C    0.202242
     2  N    1.231826
     3  C    0.065454
     4  N   -0.369829
     5  C    0.544647
     6  N   -1.176575
     7  C    0.602031
     8  O   -0.846970
     9  O   -0.252828
 Electronic spatial extent (au):  <R**2>=           1161.7432
 Charge=              0.0000 electrons
 Dipole moment (field-independent basis, Debye):
    X=              5.4553    Y=             -1.9576    Z=             -0.0015  Tot=              5.7959
 Quadrupole moment (field-independent basis, Debye-Ang):
   XX=            -36.4844   YY=            -56.9013   ZZ=            -50.2721
   XY=              7.2283   XZ=             -0.0060   YZ=              0.0023
 Traceless Quadrupole moment (field-independent basis, Debye-Ang):
   XX=             11.4016   YY=             -9.0154   ZZ=             -2.3862
   XY=              7.2283   XZ=             -0.0060   YZ=              0.0023
 Octapole moment (field-independent basis, Debye-Ang**2):
  XXX=             21.0526  YYY=             -6.0966  ZZZ=              0.0314  XYY=              7.7842
  XXY=            -27.4529  XXZ=             -0.0411  XZZ=             -2.6766  YZZ=             -2.5275
  YYZ=             -0.0309  XYZ=             -0.0054
 Hexadecapole moment (field-independent basis, Debye-Ang**3):
 XXXX=           -924.8690 YYYY=           -327.4435 ZZZZ=            -53.9623 XXXY=             88.0178
 XXXZ=             -0.1701 YYYX=             21.5869 YYYZ=              0.0887 ZZZX=              0.1055
 ZZZY=             -0.0261 XXYY=           -206.9487 XXZZ=           -191.1721 YYZZ=            -61.1602
 XXYZ=             -0.0517 YYXZ=             -0.0788 ZZXY=             -3.3844
 N-N= 4.521303811000D+02 E-N=-2.004260533939D+03  KE= 4.689458522840D+02
 ******************************Gaussian NBO Version 3.1******************************
             N A T U R A L   A T O M I C   O R B I T A L   A N D
          N A T U R A L   B O N D   O R B I T A L   A N A L Y S I S
 ******************************Gaussian NBO Version 3.1******************************
       /RESON  / : Allow strongly delocalized NBO set

 Analyzing the SCF density

 Job title: 3                                                               

 Storage needed:    841759 in NPA,   1121193 in NBO (********** available)
 GSVD:  LWork=       -4409 too small for GESVD, short by      569534 words or      569534 for optimal perf.


 NATURAL POPULATIONS:  Natural atomic orbital occupancies 
                                                          
   NAO  Atom  No  lang   Type(AO)    Occupancy      Energy
 ----------------------------------------------------------
     1    C    1  S      Cor( 1S)     1.99943     -10.49487
     2    C    1  S      Val( 2S)     1.10183      -0.36023
     3    C    1  S      Ryd( 3S)     0.00067       1.05084
     4    C    1  S      Ryd( 4S)     0.00008       1.79897
     5    C    1  S      Ryd( 5S)     0.00004       4.86654
     6    C    1  px     Val( 2p)     0.88908      -0.12412
     7    C    1  px     Ryd( 4p)     0.00182       1.15905
     8    C    1  px     Ryd( 5p)     0.00009       1.75082
     9    C    1  px     Ryd( 3p)     0.00003       0.91254
    10    C    1  py     Val( 2p)     1.16166      -0.17182
    11    C    1  py     Ryd( 4p)     0.00185       1.09830
    12    C    1  py     Ryd( 5p)     0.00009       2.04964
    13    C    1  py     Ryd( 3p)     0.00003       0.99290
    14    C    1  pz     Val( 2p)     1.22458      -0.18165
    15    C    1  pz     Ryd( 4p)     0.00066       1.02104
    16    C    1  pz     Ryd( 5p)     0.00006       1.92273
    17    C    1  pz     Ryd( 3p)     0.00001       0.76039
    18    C    1  dxy    Ryd( 3d)     0.00166       1.82135
    19    C    1  dxy    Ryd( 4d)     0.00018       2.10125
    20    C    1  dxy    Ryd( 5d)     0.00007       2.96436
    21    C    1  dxz    Ryd( 3d)     0.00041       1.51299
    22    C    1  dxz    Ryd( 4d)     0.00010       1.59693
    23    C    1  dxz    Ryd( 5d)     0.00003       2.45805
    24    C    1  dyz    Ryd( 3d)     0.00202       1.62007
    25    C    1  dyz    Ryd( 4d)     0.00007       1.80541
    26    C    1  dyz    Ryd( 5d)     0.00002       2.93760
    27    C    1  dx2y2  Ryd( 3d)     0.00047       1.69002
    28    C    1  dx2y2  Ryd( 4d)     0.00013       1.96280
    29    C    1  dx2y2  Ryd( 5d)     0.00003       2.79721
    30    C    1  dz2    Ryd( 3d)     0.00192       1.79881
    31    C    1  dz2    Ryd( 4d)     0.00005       1.90229
    32    C    1  dz2    Ryd( 5d)     0.00004       3.01819
    33    C    1  f(0)   Ryd( 5f)     0.00001       3.26859
    34    C    1  f(0)   Ryd( 4f)     0.00002       2.61779
    35    C    1  f(C1)  Ryd( 4f)     0.00004       3.39270
    36    C    1  f(C1)  Ryd( 5f)     0.00003       3.85280
    37    C    1  f(S1)  Ryd( 5f)     0.00015       3.90630
    38    C    1  f(S1)  Ryd( 4f)     0.00007       3.21460
    39    C    1  f(C2)  Ryd( 5f)     0.00001       3.19537
    40    C    1  f(C2)  Ryd( 4f)     0.00003       3.15269
    41    C    1  f(S2)  Ryd( 5f)     0.00008       3.24726
    42    C    1  f(S2)  Ryd( 4f)     0.00003       2.80190
    43    C    1  f(C3)  Ryd( 5f)     0.00004       3.35080
    44    C    1  f(C3)  Ryd( 4f)     0.00003       3.29657
    45    C    1  f(S3)  Ryd( 5f)     0.00007       3.36333
    46    C    1  f(S3)  Ryd( 4f)     0.00007       3.26062
 
    47    N    2  S      Cor( 1S)     1.99923     -14.66729
    48    N    2  S      Val( 2S)     1.13571      -0.56015
    49    N    2  S      Ryd( 3S)     0.00374       1.68566
    50    N    2  S      Ryd( 4S)     0.00010       5.53775
    51    N    2  S      Ryd( 5S)     0.00004       6.42749
    52    N    2  px     Val( 2p)     1.22615      -0.30594
    53    N    2  px     Ryd( 3p)     0.00327       2.25584
    54    N    2  px     Ryd( 5p)     0.00014       4.00960
    55    N    2  px     Ryd( 4p)     0.00008       2.44155
    56    N    2  py     Val( 2p)     1.27978      -0.32577
    57    N    2  py     Ryd( 4p)     0.00589       2.08518
    58    N    2  py     Ryd( 5p)     0.00024       3.16881
    59    N    2  py     Ryd( 3p)     0.00007       1.90166
    60    N    2  pz     Val( 2p)     1.46173      -0.34269
    61    N    2  pz     Ryd( 3p)     0.00357       0.90830
    62    N    2  pz     Ryd( 5p)     0.00008       2.50626
    63    N    2  pz     Ryd( 4p)     0.00006       1.24913
    64    N    2  dxy    Ryd( 3d)     0.00102       2.99509
    65    N    2  dxy    Ryd( 5d)     0.00057       4.66381
    66    N    2  dxy    Ryd( 4d)     0.00010       4.08935
    67    N    2  dxz    Ryd( 3d)     0.00113       1.87424
    68    N    2  dxz    Ryd( 5d)     0.00020       3.81770
    69    N    2  dxz    Ryd( 4d)     0.00008       2.80388
    70    N    2  dyz    Ryd( 3d)     0.00222       1.56428
    71    N    2  dyz    Ryd( 5d)     0.00006       3.65078
    72    N    2  dyz    Ryd( 4d)     0.00002       2.85713
    73    N    2  dx2y2  Ryd( 4d)     0.00371       3.99067
    74    N    2  dx2y2  Ryd( 5d)     0.00028       4.71156
    75    N    2  dx2y2  Ryd( 3d)     0.00017       3.38848
    76    N    2  dz2    Ryd( 3d)     0.00184       2.03282
    77    N    2  dz2    Ryd( 4d)     0.00027       4.19762
    78    N    2  dz2    Ryd( 5d)     0.00008       4.79638
    79    N    2  f(0)   Ryd( 4f)     0.00144       1.68722
    80    N    2  f(0)   Ryd( 5f)     0.00012       4.81756
    81    N    2  f(C1)  Ryd( 4f)     0.00154       2.26834
    82    N    2  f(C1)  Ryd( 5f)     0.00013       4.89401
    83    N    2  f(S1)  Ryd( 4f)     0.00096       1.98521
    84    N    2  f(S1)  Ryd( 5f)     0.00012       4.77931
    85    N    2  f(C2)  Ryd( 4f)     0.00054       1.68468
    86    N    2  f(C2)  Ryd( 5f)     0.00008       4.89532
    87    N    2  f(S2)  Ryd( 4f)     0.00040       1.63525
    88    N    2  f(S2)  Ryd( 5f)     0.00004       4.90009
    89    N    2  f(C3)  Ryd( 4f)     0.00119       2.16423
    90    N    2  f(C3)  Ryd( 5f)     0.00021       5.48932
    91    N    2  f(S3)  Ryd( 4f)     0.00042       2.45695
    92    N    2  f(S3)  Ryd( 5f)     0.00015       5.43725
 
    93    C    3  S      Cor( 1S)     1.99923     -10.45295
    94    C    3  S      Val( 2S)     0.87492      -0.14705
    95    C    3  S      Ryd( 4S)     0.00345       1.87209
    96    C    3  S      Ryd( 5S)     0.00020       2.96563
    97    C    3  S      Ryd( 3S)     0.00004       1.14278
    98    C    3  px     Val( 2p)     1.01661      -0.08846
    99    C    3  px     Ryd( 4p)     0.00593       1.81900
   100    C    3  px     Ryd( 3p)     0.00023       1.04134
   101    C    3  px     Ryd( 5p)     0.00006       1.87499
   102    C    3  py     Val( 2p)     0.93193      -0.05954
   103    C    3  py     Ryd( 4p)     0.00574       1.72561
   104    C    3  py     Ryd( 3p)     0.00020       0.90587
   105    C    3  py     Ryd( 5p)     0.00007       1.86378
   106    C    3  pz     Val( 2p)     0.98653      -0.15362
   107    C    3  pz     Ryd( 5p)     0.00207       1.15874
   108    C    3  pz     Ryd( 3p)     0.00002       0.74210
   109    C    3  pz     Ryd( 4p)     0.00007       0.86216
   110    C    3  dxy    Ryd( 3d)     0.00343       1.53156
   111    C    3  dxy    Ryd( 5d)     0.00021       3.81419
   112    C    3  dxy    Ryd( 4d)     0.00008       3.46942
   113    C    3  dxz    Ryd( 3d)     0.00132       1.16945
   114    C    3  dxz    Ryd( 5d)     0.00029       2.95892
   115    C    3  dxz    Ryd( 4d)     0.00003       2.37683
   116    C    3  dyz    Ryd( 3d)     0.00046       1.09079
   117    C    3  dyz    Ryd( 5d)     0.00046       3.04598
   118    C    3  dyz    Ryd( 4d)     0.00006       2.33148
   119    C    3  dx2y2  Ryd( 3d)     0.00069       2.16442
   120    C    3  dx2y2  Ryd( 5d)     0.00052       3.81067
   121    C    3  dx2y2  Ryd( 4d)     0.00009       3.11607
   122    C    3  dz2    Ryd( 3d)     0.00096       1.67953
   123    C    3  dz2    Ryd( 5d)     0.00032       4.47228
   124    C    3  dz2    Ryd( 4d)     0.00003       3.55063
   125    C    3  f(0)   Ryd( 5f)     0.00012       3.17290
   126    C    3  f(0)   Ryd( 4f)     0.00004       2.39557
   127    C    3  f(C1)  Ryd( 5f)     0.00020       3.63224
   128    C    3  f(C1)  Ryd( 4f)     0.00007       3.38082
   129    C    3  f(S1)  Ryd( 5f)     0.00017       3.47138
   130    C    3  f(S1)  Ryd( 4f)     0.00002       3.15641
   131    C    3  f(C2)  Ryd( 5f)     0.00000       3.38865
   132    C    3  f(C2)  Ryd( 4f)     0.00000       2.39811
   133    C    3  f(S2)  Ryd( 5f)     0.00002       3.40000
   134    C    3  f(S2)  Ryd( 4f)     0.00001       2.70976
   135    C    3  f(C3)  Ryd( 4f)     0.00008       4.28132
   136    C    3  f(C3)  Ryd( 5f)     0.00005       4.65054
   137    C    3  f(S3)  Ryd( 4f)     0.00011       4.23077
   138    C    3  f(S3)  Ryd( 5f)     0.00002       4.96171
 
   139    N    4  S      Cor( 1S)     1.99936     -14.50428
   140    N    4  S      Val( 2S)     1.34446      -0.55805
   141    N    4  S      Ryd( 4S)     0.00118       3.63288
   142    N    4  S      Ryd( 3S)     0.00018       1.42145
   143    N    4  S      Ryd( 5S)     0.00002      10.00763
   144    N    4  px     Val( 2p)     1.25962      -0.18514
   145    N    4  px     Ryd( 4p)     0.00237       2.40365
   146    N    4  px     Ryd( 5p)     0.00010       3.36157
   147    N    4  px     Ryd( 3p)     0.00006       1.52387
   148    N    4  py     Val( 2p)     1.56272      -0.24815
   149    N    4  py     Ryd( 4p)     0.00453       1.87998
   150    N    4  py     Ryd( 5p)     0.00016       3.72913
   151    N    4  py     Ryd( 3p)     0.00011       1.66976
   152    N    4  pz     Val( 2p)     1.19783      -0.20203
   153    N    4  pz     Ryd( 4p)     0.00047       1.27730
   154    N    4  pz     Ryd( 5p)     0.00003       2.45983
   155    N    4  pz     Ryd( 3p)     0.00004       1.11631
   156    N    4  dxy    Ryd( 3d)     0.00679       2.36464
   157    N    4  dxy    Ryd( 5d)     0.00020       4.65177
   158    N    4  dxy    Ryd( 4d)     0.00008       2.64880
   159    N    4  dxz    Ryd( 3d)     0.00133       1.41549
   160    N    4  dxz    Ryd( 5d)     0.00017       4.49102
   161    N    4  dxz    Ryd( 4d)     0.00006       1.83277
   162    N    4  dyz    Ryd( 3d)     0.00543       1.23999
   163    N    4  dyz    Ryd( 5d)     0.00008       4.31999
   164    N    4  dyz    Ryd( 4d)     0.00005       1.84224
   165    N    4  dx2y2  Ryd( 4d)     0.00674       2.84625
   166    N    4  dx2y2  Ryd( 5d)     0.00021       4.86105
   167    N    4  dx2y2  Ryd( 3d)     0.00012       2.63558
   168    N    4  dz2    Ryd( 3d)     0.00961       1.57124
   169    N    4  dz2    Ryd( 5d)     0.00002       4.60014
   170    N    4  dz2    Ryd( 4d)     0.00008       2.45740
   171    N    4  f(0)   Ryd( 4f)     0.00021       3.53250
   172    N    4  f(0)   Ryd( 5f)     0.00001       3.53643
   173    N    4  f(C1)  Ryd( 5f)     0.00012       4.28355
   174    N    4  f(C1)  Ryd( 4f)     0.00007       4.27929
   175    N    4  f(S1)  Ryd( 5f)     0.00013       4.29801
   176    N    4  f(S1)  Ryd( 4f)     0.00002       3.96866
   177    N    4  f(C2)  Ryd( 4f)     0.00002       3.54487
   178    N    4  f(C2)  Ryd( 5f)     0.00005       3.78674
   179    N    4  f(S2)  Ryd( 4f)     0.00005       3.50960
   180    N    4  f(S2)  Ryd( 5f)     0.00001       3.88107
   181    N    4  f(C3)  Ryd( 5f)     0.00018       5.10077
   182    N    4  f(C3)  Ryd( 4f)     0.00010       4.55867
   183    N    4  f(S3)  Ryd( 5f)     0.00009       4.99975
   184    N    4  f(S3)  Ryd( 4f)     0.00018       4.41825
 
   185    C    5  S      Cor( 1S)     1.99906     -10.42665
   186    C    5  S      Val( 2S)     0.82531      -0.05605
   187    C    5  S      Ryd( 4S)     0.00312       1.88109
   188    C    5  S      Ryd( 5S)     0.00021       3.05474
   189    C    5  S      Ryd( 3S)     0.00005       1.00446
   190    C    5  px     Val( 2p)     1.04423      -0.10307
   191    C    5  px     Ryd( 5p)     0.00421       2.35310
   192    C    5  px     Ryd( 4p)     0.00016       1.49535
   193    C    5  px     Ryd( 3p)     0.00004       1.27652
   194    C    5  py     Val( 2p)     0.91989      -0.04670
   195    C    5  py     Ryd( 5p)     0.01117       1.79296
   196    C    5  py     Ryd( 4p)     0.00022       1.40147
   197    C    5  py     Ryd( 3p)     0.00012       1.29934
   198    C    5  pz     Val( 2p)     1.05380      -0.14449
   199    C    5  pz     Ryd( 5p)     0.00237       1.10488
   200    C    5  pz     Ryd( 4p)     0.00016       0.99660
   201    C    5  pz     Ryd( 3p)     0.00006       0.86425
   202    C    5  dxy    Ryd( 3d)     0.00115       1.79354
   203    C    5  dxy    Ryd( 4d)     0.00068       4.17536
   204    C    5  dxy    Ryd( 5d)     0.00009       4.88286
   205    C    5  dxz    Ryd( 3d)     0.00038       1.34216
   206    C    5  dxz    Ryd( 5d)     0.00038       3.04621
   207    C    5  dxz    Ryd( 4d)     0.00006       2.45662
   208    C    5  dyz    Ryd( 3d)     0.00128       1.01245
   209    C    5  dyz    Ryd( 5d)     0.00039       2.97287
   210    C    5  dyz    Ryd( 4d)     0.00011       2.61857
   211    C    5  dx2y2  Ryd( 3d)     0.00267       1.96399
   212    C    5  dx2y2  Ryd( 4d)     0.00047       3.91246
   213    C    5  dx2y2  Ryd( 5d)     0.00005       4.63102
   214    C    5  dz2    Ryd( 3d)     0.00222       1.66023
   215    C    5  dz2    Ryd( 4d)     0.00047       4.37744
   216    C    5  dz2    Ryd( 5d)     0.00012       4.41554
   217    C    5  f(0)   Ryd( 4f)     0.00033       1.45996
   218    C    5  f(0)   Ryd( 5f)     0.00032       3.53290
   219    C    5  f(C1)  Ryd( 4f)     0.00143       1.81470
   220    C    5  f(C1)  Ryd( 5f)     0.00049       3.78689
   221    C    5  f(S1)  Ryd( 4f)     0.00066       1.63121
   222    C    5  f(S1)  Ryd( 5f)     0.00016       3.61934
   223    C    5  f(C2)  Ryd( 4f)     0.00102       1.55181
   224    C    5  f(C2)  Ryd( 5f)     0.00002       3.54286
   225    C    5  f(S2)  Ryd( 4f)     0.00110       1.31633
   226    C    5  f(S2)  Ryd( 5f)     0.00003       3.66160
   227    C    5  f(C3)  Ryd( 4f)     0.00116       2.40347
   228    C    5  f(C3)  Ryd( 5f)     0.00017       4.60613
   229    C    5  f(S3)  Ryd( 4f)     0.00232       2.26249
   230    C    5  f(S3)  Ryd( 5f)     0.00025       4.59982
 
   231    N    6  S      Cor( 1S)     1.99934     -14.56668
   232    N    6  S      Val( 2S)     1.33661      -0.54823
   233    N    6  S      Ryd( 4S)     0.00156       3.07060
   234    N    6  S      Ryd( 3S)     0.00016       2.13514
   235    N    6  S      Ryd( 5S)     0.00003       9.61981
   236    N    6  px     Val( 2p)     1.01695      -0.14060
   237    N    6  px     Ryd( 4p)     0.00332       2.41271
   238    N    6  px     Ryd( 3p)     0.00013       1.22156
   239    N    6  px     Ryd( 5p)     0.00009       3.18859
   240    N    6  py     Val( 2p)     1.62803      -0.28779
   241    N    6  py     Ryd( 3p)     0.00419       1.74424
   242    N    6  py     Ryd( 4p)     0.00017       1.76496
   243    N    6  py     Ryd( 5p)     0.00014       3.95361
   244    N    6  pz     Val( 2p)     1.19700      -0.22709
   245    N    6  pz     Ryd( 4p)     0.00226       1.28441
   246    N    6  pz     Ryd( 3p)     0.00006       1.16879
   247    N    6  pz     Ryd( 5p)     0.00005       2.42588
   248    N    6  dxy    Ryd( 4d)     0.00485       3.02070
   249    N    6  dxy    Ryd( 5d)     0.00020       5.48808
   250    N    6  dxy    Ryd( 3d)     0.00009       1.93388
   251    N    6  dxz    Ryd( 4d)     0.00027       1.72337
   252    N    6  dxz    Ryd( 5d)     0.00015       4.89147
   253    N    6  dxz    Ryd( 3d)     0.00012       1.34352
   254    N    6  dyz    Ryd( 4d)     0.00421       1.47910
   255    N    6  dyz    Ryd( 5d)     0.00002       4.77781
   256    N    6  dyz    Ryd( 3d)     0.00005       1.18343
   257    N    6  dx2y2  Ryd( 4d)     0.00229       2.23477
   258    N    6  dx2y2  Ryd( 5d)     0.00029       5.23249
   259    N    6  dx2y2  Ryd( 3d)     0.00025       1.93859
   260    N    6  dz2    Ryd( 3d)     0.00597       1.99536
   261    N    6  dz2    Ryd( 5d)     0.00007       5.22608
   262    N    6  dz2    Ryd( 4d)     0.00010       2.38606
   263    N    6  f(0)   Ryd( 5f)     0.00014       4.86500
   264    N    6  f(0)   Ryd( 4f)     0.00003       2.39176
   265    N    6  f(C1)  Ryd( 5f)     0.00012       5.06563
   266    N    6  f(C1)  Ryd( 4f)     0.00005       4.16969
   267    N    6  f(S1)  Ryd( 5f)     0.00007       4.93037
   268    N    6  f(S1)  Ryd( 4f)     0.00006       3.07668
   269    N    6  f(C2)  Ryd( 5f)     0.00003       4.84355
   270    N    6  f(C2)  Ryd( 4f)     0.00003       2.64609
   271    N    6  f(S2)  Ryd( 5f)     0.00004       4.96974
   272    N    6  f(S2)  Ryd( 4f)     0.00002       2.52758
   273    N    6  f(C3)  Ryd( 5f)     0.00005       5.51712
   274    N    6  f(C3)  Ryd( 4f)     0.00017       4.27217
   275    N    6  f(S3)  Ryd( 5f)     0.00016       5.48327
   276    N    6  f(S3)  Ryd( 4f)     0.00009       4.06728
 
   277    C    7  S      Cor( 1S)     1.99910     -10.53874
   278    C    7  S      Val( 2S)     0.79202      -0.11034
   279    C    7  S      Ryd( 4S)     0.00430       1.90072
   280    C    7  S      Ryd( 3S)     0.00023       1.47800
   281    C    7  S      Ryd( 5S)     0.00014       2.31467
   282    C    7  px     Val( 2p)     0.91183      -0.04151
   283    C    7  px     Ryd( 5p)     0.00683       1.63435
   284    C    7  px     Ryd( 3p)     0.00023       0.87529
   285    C    7  px     Ryd( 4p)     0.00003       1.62747
   286    C    7  py     Val( 2p)     0.73820      -0.01891
   287    C    7  py     Ryd( 4p)     0.01083       1.66551
   288    C    7  py     Ryd( 3p)     0.00016       0.91399
   289    C    7  py     Ryd( 5p)     0.00007       2.04308
   290    C    7  pz     Val( 2p)     0.76226      -0.12175
   291    C    7  pz     Ryd( 5p)     0.00071       1.20249
   292    C    7  pz     Ryd( 3p)     0.00008       0.56414
   293    C    7  pz     Ryd( 4p)     0.00006       1.16405
   294    C    7  dxy    Ryd( 4d)     0.00055       4.14081
   295    C    7  dxy    Ryd( 3d)     0.00006       1.95212
   296    C    7  dxy    Ryd( 5d)     0.00008       4.60612
   297    C    7  dxz    Ryd( 5d)     0.00059       3.33028
   298    C    7  dxz    Ryd( 3d)     0.00018       0.88556
   299    C    7  dxz    Ryd( 4d)     0.00004       2.72099
   300    C    7  dyz    Ryd( 5d)     0.00140       3.29857
   301    C    7  dyz    Ryd( 3d)     0.00006       1.10688
   302    C    7  dyz    Ryd( 4d)     0.00004       2.92836
   303    C    7  dx2y2  Ryd( 5d)     0.00189       4.21718
   304    C    7  dx2y2  Ryd( 3d)     0.00010       1.69520
   305    C    7  dx2y2  Ryd( 4d)     0.00003       3.99228
   306    C    7  dz2    Ryd( 5d)     0.00022       4.44651
   307    C    7  dz2    Ryd( 3d)     0.00017       2.19313
   308    C    7  dz2    Ryd( 4d)     0.00023       3.77787
   309    C    7  f(0)   Ryd( 5f)     0.00014       3.48478
   310    C    7  f(0)   Ryd( 4f)     0.00004       2.50561
   311    C    7  f(C1)  Ryd( 5f)     0.00020       3.64173
   312    C    7  f(C1)  Ryd( 4f)     0.00003       3.26103
   313    C    7  f(S1)  Ryd( 5f)     0.00006       3.59609
   314    C    7  f(S1)  Ryd( 4f)     0.00004       3.20655
   315    C    7  f(C2)  Ryd( 5f)     0.00002       3.46654
   316    C    7  f(C2)  Ryd( 4f)     0.00010       2.69224
   317    C    7  f(S2)  Ryd( 5f)     0.00000       3.59296
   318    C    7  f(S2)  Ryd( 4f)     0.00004       2.87254
   319    C    7  f(C3)  Ryd( 4f)     0.00011       4.32473
   320    C    7  f(C3)  Ryd( 5f)     0.00003       7.43002
   321    C    7  f(S3)  Ryd( 4f)     0.00014       4.54134
   322    C    7  f(S3)  Ryd( 5f)     0.00001       5.39365
 
   323    O    8  S      Cor( 1S)     1.99979     -19.32800
   324    O    8  S      Val( 2S)     1.71340      -0.99478
   325    O    8  S      Ryd( 4S)     0.00123       3.13146
   326    O    8  S      Ryd( 3S)     0.00013       1.55282
   327    O    8  S      Ryd( 5S)     0.00002       8.75772
   328    O    8  px     Val( 2p)     1.71041      -0.32588
   329    O    8  px     Ryd( 4p)     0.00090       1.33692
   330    O    8  px     Ryd( 3p)     0.00005       0.59792
   331    O    8  px     Ryd( 5p)     0.00006       4.94037
   332    O    8  py     Val( 2p)     1.68315      -0.32577
   333    O    8  py     Ryd( 4p)     0.00157       1.26669
   334    O    8  py     Ryd( 3p)     0.00009       0.54521
   335    O    8  py     Ryd( 5p)     0.00004       5.13795
   336    O    8  pz     Val( 2p)     1.43571      -0.27847
   337    O    8  pz     Ryd( 4p)     0.00072       0.90046
   338    O    8  pz     Ryd( 3p)     0.00002       0.53368
   339    O    8  pz     Ryd( 5p)     0.00000       4.13315
   340    O    8  dxy    Ryd( 3d)     0.00834       2.03775
   341    O    8  dxy    Ryd( 4d)     0.00015       2.92024
   342    O    8  dxy    Ryd( 5d)     0.00002       6.71298
   343    O    8  dxz    Ryd( 3d)     0.00292       1.46935
   344    O    8  dxz    Ryd( 4d)     0.00002       1.59976
   345    O    8  dxz    Ryd( 5d)     0.00002       6.54269
   346    O    8  dyz    Ryd( 3d)     0.00398       1.48549
   347    O    8  dyz    Ryd( 4d)     0.00008       1.61480
   348    O    8  dyz    Ryd( 5d)     0.00002       6.51944
   349    O    8  dx2y2  Ryd( 3d)     0.00544       1.85564
   350    O    8  dx2y2  Ryd( 4d)     0.00003       1.92362
   351    O    8  dx2y2  Ryd( 5d)     0.00007       6.58854
   352    O    8  dz2    Ryd( 3d)     0.00285       1.60303
   353    O    8  dz2    Ryd( 4d)     0.00008       2.30354
   354    O    8  dz2    Ryd( 5d)     0.00000       6.61064
   355    O    8  f(0)   Ryd( 4f)     0.00011       3.06284
   356    O    8  f(0)   Ryd( 5f)     0.00000       5.54569
   357    O    8  f(C1)  Ryd( 4f)     0.00009       3.40641
   358    O    8  f(C1)  Ryd( 5f)     0.00001       5.69952
   359    O    8  f(S1)  Ryd( 4f)     0.00008       3.31456
   360    O    8  f(S1)  Ryd( 5f)     0.00001       5.71163
   361    O    8  f(C2)  Ryd( 4f)     0.00003       3.01617
   362    O    8  f(C2)  Ryd( 5f)     0.00002       5.79097
   363    O    8  f(S2)  Ryd( 4f)     0.00038       3.14290
   364    O    8  f(S2)  Ryd( 5f)     0.00002       5.62096
   365    O    8  f(C3)  Ryd( 4f)     0.00034       3.79532
   366    O    8  f(C3)  Ryd( 5f)     0.00002       6.05378
   367    O    8  f(S3)  Ryd( 4f)     0.00048       3.63252
   368    O    8  f(S3)  Ryd( 5f)     0.00003       5.98249
 
   369    O    9  S      Cor( 1S)     1.99978     -19.45771
   370    O    9  S      Val( 2S)     1.67777      -1.02555
   371    O    9  S      Ryd( 3S)     0.00065       1.36935
   372    O    9  S      Ryd( 4S)     0.00011       2.62151
   373    O    9  S      Ryd( 5S)     0.00002      10.10986
   374    O    9  px     Val( 2p)     1.54961      -0.36175
   375    O    9  px     Ryd( 4p)     0.00082       1.18417
   376    O    9  px     Ryd( 3p)     0.00010       1.09974
   377    O    9  px     Ryd( 5p)     0.00007       4.73714
   378    O    9  py     Val( 2p)     1.59568      -0.37918
   379    O    9  py     Ryd( 4p)     0.00083       0.97708
   380    O    9  py     Ryd( 3p)     0.00008       0.83676
   381    O    9  py     Ryd( 5p)     0.00007       4.76809
   382    O    9  pz     Val( 2p)     1.84273      -0.40478
   383    O    9  pz     Ryd( 3p)     0.00132       0.77264
   384    O    9  pz     Ryd( 4p)     0.00003       0.81864
   385    O    9  pz     Ryd( 5p)     0.00001       3.80586
   386    O    9  dxy    Ryd( 3d)     0.00408       1.72775
   387    O    9  dxy    Ryd( 4d)     0.00009       2.45386
   388    O    9  dxy    Ryd( 5d)     0.00004       6.67790
   389    O    9  dxz    Ryd( 3d)     0.00153       1.11086
   390    O    9  dxz    Ryd( 4d)     0.00008       1.94062
   391    O    9  dxz    Ryd( 5d)     0.00001       6.46254
   392    O    9  dyz    Ryd( 3d)     0.00395       1.34482
   393    O    9  dyz    Ryd( 4d)     0.00004       1.74333
   394    O    9  dyz    Ryd( 5d)     0.00004       6.49745
   395    O    9  dx2y2  Ryd( 3d)     0.00645       1.98183
   396    O    9  dx2y2  Ryd( 4d)     0.00014       2.20640
   397    O    9  dx2y2  Ryd( 5d)     0.00006       6.98544
   398    O    9  dz2    Ryd( 3d)     0.00332       1.43686
   399    O    9  dz2    Ryd( 4d)     0.00014       2.27336
   400    O    9  dz2    Ryd( 5d)     0.00001       6.69571
   401    O    9  f(0)   Ryd( 4f)     0.00053       2.73343
   402    O    9  f(0)   Ryd( 5f)     0.00001       5.95559
   403    O    9  f(C1)  Ryd( 4f)     0.00020       3.27598
   404    O    9  f(C1)  Ryd( 5f)     0.00002       6.21232
   405    O    9  f(S1)  Ryd( 4f)     0.00019       3.26471
   406    O    9  f(S1)  Ryd( 5f)     0.00001       6.09581
   407    O    9  f(C2)  Ryd( 4f)     0.00002       2.86782
   408    O    9  f(C2)  Ryd( 5f)     0.00001       6.07639
   409    O    9  f(S2)  Ryd( 4f)     0.00016       2.74810
   410    O    9  f(S2)  Ryd( 5f)     0.00001       6.03122
   411    O    9  f(C3)  Ryd( 4f)     0.00017       4.22418
   412    O    9  f(C3)  Ryd( 5f)     0.00006       6.53330
   413    O    9  f(S3)  Ryd( 4f)     0.00004       3.74362
   414    O    9  f(S3)  Ryd( 5f)     0.00002       6.43890
 
   415    H   10  S      Val( 1S)     0.77915      -0.02746
   416    H   10  S      Ryd( 4S)     0.00025       1.48305
   417    H   10  S      Ryd( 2S)     0.00009       0.43573
   418    H   10  S      Ryd( 3S)     0.00002       1.42765
   419    H   10  px     Ryd( 3p)     0.00033       2.49493
   420    H   10  px     Ryd( 4p)     0.00003       3.69736
   421    H   10  px     Ryd( 2p)     0.00001       2.41439
   422    H   10  py     Ryd( 3p)     0.00017       2.54260
   423    H   10  py     Ryd( 4p)     0.00005       3.41158
   424    H   10  py     Ryd( 2p)     0.00002       2.46757
   425    H   10  pz     Ryd( 3p)     0.00004       2.55091
   426    H   10  pz     Ryd( 4p)     0.00009       2.58356
   427    H   10  pz     Ryd( 2p)     0.00002       2.02742
   428    H   10  dxy    Ryd( 3d)     0.00008       2.21625
   429    H   10  dxy    Ryd( 4d)     0.00005       3.81336
   430    H   10  dxz    Ryd( 3d)     0.00005       1.55699
   431    H   10  dxz    Ryd( 4d)     0.00001       3.58264
   432    H   10  dyz    Ryd( 3d)     0.00010       1.61562
   433    H   10  dyz    Ryd( 4d)     0.00001       3.59907
   434    H   10  dx2y2  Ryd( 3d)     0.00007       1.79253
   435    H   10  dx2y2  Ryd( 4d)     0.00001       3.87292
   436    H   10  dz2    Ryd( 3d)     0.00003       1.78396
   437    H   10  dz2    Ryd( 4d)     0.00004       3.57303
 
   438    H   11  S      Val( 1S)     0.77619      -0.01206
   439    H   11  S      Ryd( 4S)     0.00027       1.85381
   440    H   11  S      Ryd( 2S)     0.00008       0.38818
   441    H   11  S      Ryd( 3S)     0.00003       1.38582
   442    H   11  px     Ryd( 2p)     0.00032       0.82088
   443    H   11  px     Ryd( 4p)     0.00003       3.85771
   444    H   11  px     Ryd( 3p)     0.00004       1.87901
   445    H   11  py     Ryd( 2p)     0.00052       0.92232
   446    H   11  py     Ryd( 4p)     0.00009       4.00065
   447    H   11  py     Ryd( 3p)     0.00002       2.35863
   448    H   11  pz     Ryd( 2p)     0.00067       0.98510
   449    H   11  pz     Ryd( 4p)     0.00007       4.13555
   450    H   11  pz     Ryd( 3p)     0.00001       2.97769
   451    H   11  dxy    Ryd( 3d)     0.00003       2.23203
   452    H   11  dxy    Ryd( 4d)     0.00001       3.26575
   453    H   11  dxz    Ryd( 3d)     0.00002       2.19293
   454    H   11  dxz    Ryd( 4d)     0.00001       3.38027
   455    H   11  dyz    Ryd( 3d)     0.00011       2.26043
   456    H   11  dyz    Ryd( 4d)     0.00001       4.00785
   457    H   11  dx2y2  Ryd( 3d)     0.00003       2.25049
   458    H   11  dx2y2  Ryd( 4d)     0.00001       3.16686
   459    H   11  dz2    Ryd( 3d)     0.00006       2.27984
   460    H   11  dz2    Ryd( 4d)     0.00002       3.77219
 
   461    H   12  S      Val( 1S)     0.77577      -0.01182
   462    H   12  S      Ryd( 4S)     0.00027       1.85359
   463    H   12  S      Ryd( 2S)     0.00008       0.39239
   464    H   12  S      Ryd( 3S)     0.00003       1.38360
   465    H   12  px     Ryd( 2p)     0.00033       0.81570
   466    H   12  px     Ryd( 4p)     0.00003       3.86187
   467    H   12  px     Ryd( 3p)     0.00004       1.87487
   468    H   12  py     Ryd( 2p)     0.00054       0.92300
   469    H   12  py     Ryd( 4p)     0.00009       4.01498
   470    H   12  py     Ryd( 3p)     0.00002       2.39887
   471    H   12  pz     Ryd( 2p)     0.00066       0.97285
   472    H   12  pz     Ryd( 4p)     0.00007       4.11840
   473    H   12  pz     Ryd( 3p)     0.00001       2.95464
   474    H   12  dxy    Ryd( 3d)     0.00003       2.23165
   475    H   12  dxy    Ryd( 4d)     0.00001       3.28360
   476    H   12  dxz    Ryd( 3d)     0.00002       2.18898
   477    H   12  dxz    Ryd( 4d)     0.00001       3.36311
   478    H   12  dyz    Ryd( 3d)     0.00011       2.26231
   479    H   12  dyz    Ryd( 4d)     0.00001       4.02291
   480    H   12  dx2y2  Ryd( 3d)     0.00003       2.25208
   481    H   12  dx2y2  Ryd( 4d)     0.00001       3.19009
   482    H   12  dz2    Ryd( 3d)     0.00005       2.26837
   483    H   12  dz2    Ryd( 4d)     0.00002       3.74818
 
   484    H   13  S      Val( 1S)     0.79631      -0.01887
   485    H   13  S      Ryd( 4S)     0.00021       1.93841
   486    H   13  S      Ryd( 2S)     0.00007       0.50039
   487    H   13  S      Ryd( 3S)     0.00005       1.26959
   488    H   13  px     Ryd( 2p)     0.00033       0.80972
   489    H   13  px     Ryd( 4p)     0.00020       4.31192
   490    H   13  px     Ryd( 3p)     0.00002       2.98837
   491    H   13  py     Ryd( 2p)     0.00111       0.73908
   492    H   13  py     Ryd( 4p)     0.00015       4.32023
   493    H   13  py     Ryd( 3p)     0.00004       2.87976
   494    H   13  pz     Ryd( 2p)     0.00111       0.55233
   495    H   13  pz     Ryd( 4p)     0.00001       3.94514
   496    H   13  pz     Ryd( 3p)     0.00004       1.65629
   497    H   13  dxy    Ryd( 3d)     0.00017       1.79028
   498    H   13  dxy    Ryd( 4d)     0.00004       4.33247
   499    H   13  dxz    Ryd( 3d)     0.00002       1.48831
   500    H   13  dxz    Ryd( 4d)     0.00001       3.81281
   501    H   13  dyz    Ryd( 3d)     0.00005       1.49708
   502    H   13  dyz    Ryd( 4d)     0.00001       3.77991
   503    H   13  dx2y2  Ryd( 3d)     0.00004       1.92057
   504    H   13  dx2y2  Ryd( 4d)     0.00004       4.45429
   505    H   13  dz2    Ryd( 3d)     0.00014       1.62429
   506    H   13  dz2    Ryd( 4d)     0.00004       3.85163
 
   507    H   14  S      Val( 1S)     0.49515       0.13698
   508    H   14  S      Ryd( 4S)     0.00093       1.73612
   509    H   14  S      Ryd( 3S)     0.00025       1.53519
   510    H   14  S      Ryd( 2S)     0.00015       0.75738
   511    H   14  px     Ryd( 2p)     0.00036       2.25722
   512    H   14  px     Ryd( 4p)     0.00033       4.24096
   513    H   14  px     Ryd( 3p)     0.00002       3.08301
   514    H   14  py     Ryd( 2p)     0.00029       1.40803
   515    H   14  py     Ryd( 4p)     0.00006       3.43279
   516    H   14  py     Ryd( 3p)     0.00001       2.86450
   517    H   14  pz     Ryd( 2p)     0.00069       1.25839
   518    H   14  pz     Ryd( 4p)     0.00004       3.20910
   519    H   14  pz     Ryd( 3p)     0.00001       2.54172
   520    H   14  dxy    Ryd( 3d)     0.00009       1.20178
   521    H   14  dxy    Ryd( 4d)     0.00001       4.37679
   522    H   14  dxz    Ryd( 3d)     0.00010       1.14801
   523    H   14  dxz    Ryd( 4d)     0.00000       4.24081
   524    H   14  dyz    Ryd( 3d)     0.00006       1.14211
   525    H   14  dyz    Ryd( 4d)     0.00000       3.78041
   526    H   14  dx2y2  Ryd( 3d)     0.00005       1.90180
   527    H   14  dx2y2  Ryd( 4d)     0.00001       4.55566
   528    H   14  dz2    Ryd( 3d)     0.00009       1.63858
   529    H   14  dz2    Ryd( 4d)     0.00000       4.02043

 WARNING:  Population inversion found on atom  C    1
           Population inversion found on atom  N    2
           Population inversion found on atom  C    3
           Population inversion found on atom  N    4
           Population inversion found on atom  C    5
           Population inversion found on atom  N    6
           Population inversion found on atom  C    7
           Population inversion found on atom  O    8
           Population inversion found on atom  O    9
           Population inversion found on atom  H   10
           Population inversion found on atom  H   11
           Population inversion found on atom  H   12
           Population inversion found on atom  H   13
           Population inversion found on atom  H   14


 Summary of Natural Population Analysis:                  
                                                          
                                       Natural Population 
                Natural  -----------------------------------------------
    Atom  No    Charge         Core      Valence    Rydberg      Total
 -----------------------------------------------------------------------
      C    1   -0.38988      1.99943     4.37714    0.01332     6.38988
      N    2   -0.13898      1.99923     5.10336    0.03640     7.13898
      C    3    0.16280      1.99923     3.80998    0.02799     5.83720
      N    4   -0.40543      1.99936     5.36464    0.04143     7.40543
      C    5    0.11581      1.99906     3.84323    0.04189     5.88419
      N    6   -0.21007      1.99934     5.17859    0.03215     7.21007
      C    7    0.76631      1.99910     3.20431    0.03028     5.23369
      O    8   -0.57290      1.99979     6.54267    0.03043     8.57290
      O    9   -0.69110      1.99978     6.66578    0.02553     8.69110
      H   10    0.21927      0.00000     0.77915    0.00158     0.78073
      H   11    0.22134      0.00000     0.77619    0.00247     0.77866
      H   12    0.22175      0.00000     0.77577    0.00249     0.77825
      H   13    0.19978      0.00000     0.79631    0.00391     0.80022
      H   14    0.50131      0.00000     0.49515    0.00355     0.49869
 =======================================================================
   * Total *    0.00000     17.99432    47.71227    0.29341    66.00000

                                 Natural Population      
 --------------------------------------------------------
   Core                      17.99432 ( 99.9684% of  18)
   Valence                   47.71227 ( 99.4006% of  48)
   Natural Minimal Basis     65.70659 ( 99.5554% of  66)
   Natural Rydberg Basis      0.29341 (  0.4446% of  66)
 --------------------------------------------------------

    Atom  No          Natural Electron Configuration
 ----------------------------------------------------------------------------
      C    1      [core]2S( 1.10)2p( 3.28)3d( 0.01)
      N    2      [core]2S( 1.14)2p( 3.97)3p( 0.01)3d( 0.01)4p( 0.01)4f( 0.01)
      C    3      [core]2S( 0.87)2p( 2.94)3d( 0.01)4p( 0.01)
      N    4      [core]2S( 1.34)2p( 4.02)3d( 0.02)4p( 0.01)4d( 0.01)
      C    5      [core]2S( 0.83)2p( 3.02)3d( 0.01)5p( 0.02)4f( 0.01)
      N    6      [core]2S( 1.34)2p( 3.84)3d( 0.01)4p( 0.01)4d( 0.01)
      C    7      [core]2S( 0.79)2p( 2.41)4p( 0.01)5p( 0.01)
      O    8      [core]2S( 1.71)2p( 4.83)3d( 0.02)
      O    9      [core]2S( 1.68)2p( 4.99)3d( 0.02)
      H   10            1S( 0.78)
      H   11            1S( 0.78)
      H   12            1S( 0.78)
      H   13            1S( 0.80)
      H   14            1S( 0.50)


 NATURAL BOND ORBITAL ANALYSIS:

                       Occupancies       Lewis Structure    Low   High
           Occ.    -------------------  -----------------   occ   occ
  Cycle   Thresh.   Lewis   Non-Lewis     CR  BD  3C  LP    (L)   (NL)   Dev
 =============================================================================
   1(1)    1.90    62.82664   3.17336      9  16   0   8     8      5    0.51
   2(2)    1.90    62.82664   3.17336      9  16   0   8     8      5    0.51
   3(1)    1.80    64.18818   1.81182      9  17   0   7     1      3    0.51
   4(2)    1.80    64.39483   1.60517      9  17   0   7     1      3    0.34
   5(3)    1.80    64.39483   1.60517      9  17   0   7     1      3    0.34
   6(1)    1.70    64.39483   1.60517      9  17   0   7     1      3    0.34
   7(2)    1.70    64.10496   1.89504      9  17   0   7     1      3    0.51
   8(3)    1.70    64.39483   1.60517      9  17   0   7     1      3    0.34
   9(1)    1.60    64.39483   1.60517      9  17   0   7     1      3    0.34
  10(2)    1.60    64.10496   1.89504      9  17   0   7     1      3    0.51
  11(3)    1.60    64.39483   1.60517      9  17   0   7     1      3    0.34
  12(1)    1.50    63.32067   2.67933      9  17   0   7     1      5    0.73
  13(2)    1.50    63.32067   2.67933      9  17   0   7     1      5    0.73
  14(1)    1.80    64.39483   1.60517      9  17   0   7     1      3    0.34
 -----------------------------------------------------------------------------

 Structure accepted: RESONANCE keyword permits strongly delocalized structure

 --------------------------------------------------------
   Core                     17.99432 ( 99.968% of  18)
   Valence Lewis            46.40051 ( 96.668% of  48)
  ==================       ============================
   Total Lewis              64.39483 ( 97.568% of  66)
  -----------------------------------------------------
   Valence non-Lewis         1.46504 (  2.220% of  66)
   Rydberg non-Lewis         0.14013 (  0.212% of  66)
  ==================       ============================
   Total non-Lewis           1.60517 (  2.432% of  66)
 --------------------------------------------------------


       (Occupancy)   Bond orbital/ Coefficients/ Hybrids
 ---------------------------------------------------------------------------------
     1. (1.98898) BD ( 1) C   1 - N   2  
                ( 35.75%)   0.5979* C   1 s( 24.28%)p 3.11( 75.58%)d 0.01(  0.13%)
                                                  f 0.00(  0.01%)
                                            0.0001  0.4921 -0.0239  0.0019  0.0011
                                           -0.7944 -0.0328  0.0052  0.0021  0.3516
                                            0.0083 -0.0034 -0.0011 -0.0002  0.0000
                                            0.0000  0.0000 -0.0244 -0.0058 -0.0023
                                            0.0000  0.0000  0.0000  0.0000  0.0000
                                            0.0000  0.0172  0.0071  0.0025 -0.0160
                                           -0.0056 -0.0024  0.0000  0.0001  0.0038
                                           -0.0046 -0.0031 -0.0022  0.0000  0.0001
                                            0.0000 -0.0001 -0.0013  0.0019  0.0049
                                           -0.0056
                ( 64.25%)   0.8016* N   2 s( 31.34%)p 2.19( 68.56%)d 0.00(  0.03%)
                                                  f 0.00(  0.07%)
                                           -0.0002  0.5598  0.0020 -0.0001  0.0010
                                            0.7315  0.0222 -0.0044 -0.0040 -0.3872
                                            0.0023  0.0014  0.0014 -0.0001  0.0000
                                            0.0000  0.0000 -0.0081 -0.0043  0.0005
                                            0.0000  0.0000  0.0000  0.0000  0.0000
                                            0.0000  0.0121  0.0014  0.0001 -0.0050
                                           -0.0022  0.0000  0.0000  0.0000 -0.0193
                                           -0.0058  0.0066  0.0029  0.0000  0.0000
                                            0.0000  0.0000  0.0008  0.0015 -0.0159
                                           -0.0021
     2. (1.99032) BD ( 1) C   1 - H  10  
                ( 60.92%)   0.7805* C   1 s( 26.07%)p 2.83( 73.77%)d 0.01(  0.15%)
                                                  f 0.00(  0.01%)
                                           -0.0001  0.5106  0.0011  0.0025 -0.0028
                                            0.5910  0.0061  0.0018  0.0013  0.6229
                                           -0.0130 -0.0027  0.0009 -0.0108  0.0000
                                            0.0000  0.0000  0.0300 -0.0066  0.0024
                                           -0.0006  0.0001 -0.0001 -0.0007  0.0001
                                            0.0000 -0.0068 -0.0029  0.0019 -0.0223
                                            0.0033 -0.0001  0.0002  0.0001 -0.0035
                                           -0.0001 -0.0056 -0.0025  0.0000  0.0000
                                           -0.0002 -0.0001 -0.0011 -0.0028  0.0057
                                            0.0015
                ( 39.08%)   0.6251* H  10 s( 99.93%)p 0.00(  0.06%)d 0.00(  0.01%)
                                            0.9997  0.0004  0.0002 -0.0001  0.0188
                                           -0.0042 -0.0008  0.0135 -0.0032  0.0029
                                           -0.0003  0.0001  0.0000  0.0029  0.0071
                                            0.0000 -0.0002  0.0000 -0.0002  0.0037
                                            0.0004  0.0004 -0.0068
     3. (1.98845) BD ( 1) C   1 - H  11  
                ( 61.21%)   0.7823* C   1 s( 24.85%)p 3.02( 75.01%)d 0.01(  0.13%)
                                                  f 0.00(  0.01%)
                                            0.0000  0.4984  0.0069 -0.0015  0.0012
                                            0.0933  0.0088  0.0019 -0.0010 -0.4842
                                            0.0012 -0.0008  0.0005  0.7119 -0.0091
                                            0.0021  0.0004 -0.0006  0.0029 -0.0005
                                            0.0053 -0.0060  0.0000 -0.0273 -0.0033
                                            0.0016 -0.0039 -0.0008 -0.0005  0.0211
                                           -0.0009 -0.0001  0.0011 -0.0013  0.0014
                                            0.0004 -0.0062 -0.0040 -0.0008 -0.0018
                                           -0.0054  0.0026 -0.0031 -0.0013  0.0003
                                            0.0020
                ( 38.79%)   0.6229* H  11 s( 99.87%)p 0.00(  0.10%)d 0.00(  0.02%)
                                            0.9994  0.0011  0.0002 -0.0001  0.0068
                                           -0.0016 -0.0030 -0.0161  0.0058 -0.0032
                                            0.0250 -0.0074  0.0006  0.0043 -0.0015
                                           -0.0025  0.0020  0.0114 -0.0004  0.0023
                                            0.0003 -0.0073  0.0002
     4. (1.98856) BD ( 1) C   1 - H  12  
                ( 61.22%)   0.7825* C   1 s( 24.84%)p 3.02( 75.02%)d 0.01(  0.13%)
                                                  f 0.00(  0.01%)
                                            0.0000  0.4984  0.0068 -0.0015  0.0012
                                            0.0859  0.0089  0.0019 -0.0009 -0.5015
                                            0.0015 -0.0008  0.0005 -0.7008  0.0090
                                           -0.0021 -0.0004 -0.0004  0.0031 -0.0005
                                           -0.0048  0.0060  0.0000  0.0280  0.0032
                                           -0.0016 -0.0046 -0.0008 -0.0005  0.0200
                                           -0.0011 -0.0001 -0.0007  0.0015  0.0012
                                            0.0005 -0.0063 -0.0038  0.0010  0.0019
                                            0.0053 -0.0027 -0.0033 -0.0012  0.0004
                                            0.0020
                ( 38.78%)   0.6227* H  12 s( 99.87%)p 0.00(  0.10%)d 0.00(  0.02%)
                                            0.9994  0.0011  0.0002 -0.0001  0.0065
                                           -0.0015 -0.0030 -0.0167  0.0061 -0.0032
                                           -0.0247  0.0073 -0.0005  0.0043 -0.0015
                                            0.0022 -0.0020 -0.0117  0.0004  0.0026
                                            0.0003 -0.0068  0.0002
     5. (1.98996) BD ( 1) N   2 - C   3  
                ( 62.60%)   0.7912* N   2 s( 35.32%)p 1.83( 64.46%)d 0.00(  0.16%)
                                                  f 0.00(  0.06%)
                                            0.0000  0.5941  0.0163  0.0006 -0.0009
                                           -0.0289 -0.0177  0.0034  0.0016  0.8021
                                           -0.0066  0.0011  0.0002 -0.0002  0.0000
                                            0.0000  0.0000 -0.0109 -0.0024 -0.0046
                                            0.0000  0.0000  0.0000  0.0000  0.0000
                                            0.0000 -0.0330 -0.0051 -0.0020 -0.0167
                                           -0.0066 -0.0063  0.0000  0.0000  0.0046
                                            0.0001 -0.0213 -0.0071  0.0000  0.0000
                                            0.0000  0.0000  0.0042  0.0008 -0.0037
                                           -0.0040
                ( 37.40%)   0.6115* C   3 s( 31.78%)p 2.14( 68.11%)d 0.00(  0.10%)
[...]
 ! A19   A(5,7,9)              112.1205         -DE/DX =    0.0                 !
 ! A20   A(8,7,9)              123.7175         -DE/DX =    0.0                 !
 ! A21   A(7,9,14)             106.6438         -DE/DX =    0.0                 !
 ! D1    D(10,1,2,3)             0.0511         -DE/DX =    0.0                 !
 ! D2    D(10,1,2,6)          -179.9566         -DE/DX =    0.0                 !
 ! D3    D(11,1,2,3)           119.9311         -DE/DX =    0.0                 !
 ! D4    D(11,1,2,6)           -60.0767         -DE/DX =    0.0                 !
 ! D5    D(12,1,2,3)          -119.8311         -DE/DX =    0.0                 !
 ! D6    D(12,1,2,6)            60.1611         -DE/DX =    0.0                 !
 ! D7    D(1,2,3,4)            179.9934         -DE/DX =    0.0                 !
 ! D8    D(1,2,3,13)            -0.0065         -DE/DX =    0.0                 !
 ! D9    D(6,2,3,4)              0.0005         -DE/DX =    0.0                 !
 ! D10   D(6,2,3,13)          -179.9995         -DE/DX =    0.0                 !
 ! D11   D(1,2,6,5)           -179.9941         -DE/DX =    0.0                 !
 ! D12   D(3,2,6,5)             -0.0005         -DE/DX =    0.0                 !
 ! D13   D(2,3,4,5)             -0.0002         -DE/DX =    0.0                 !
 ! D14   D(13,3,4,5)           179.9997         -DE/DX =    0.0                 !
 ! D15   D(3,4,5,6)             -0.0001         -DE/DX =    0.0                 !
 ! D16   D(3,4,5,7)            179.9988         -DE/DX =    0.0                 !
 ! D17   D(4,5,6,2)              0.0003         -DE/DX =    0.0                 !
 ! D18   D(7,5,6,2)           -179.9986         -DE/DX =    0.0                 !
 ! D19   D(4,5,7,8)              0.0038         -DE/DX =   -0.0001              !
 ! D20   D(4,5,7,9)           -179.9958         -DE/DX =    0.0001              !
 ! D21   D(6,5,7,8)           -179.9974         -DE/DX =   -0.0001              !
 ! D22   D(6,5,7,9)              0.003          -DE/DX =    0.0001              !
 ! D23   D(5,7,9,14)           180.0            -DE/DX =   -0.0001              !
 ! D24   D(8,7,9,14)             0.0003         -DE/DX =    0.0001              !
 --------------------------------------------------------------------------------
 GradGradGradGradGradGradGradGradGradGradGradGradGradGradGradGradGradGrad


 ----------------------------------------------------------------------

 Electric dipole moment (input orientation):
 (Debye = 10**-18 statcoulomb cm , SI units = C m)
                  (au)            (Debye)         (10**-30 SI)
   Tot        0.206382D+01      0.524570D+01      0.174978D+02
   x         -0.391494D-01     -0.995078D-01     -0.331922D+00
   y          0.107080D-02      0.272170D-02      0.907861D-02
   z         -0.206344D+01     -0.524475D+01     -0.174946D+02

 Dipole polarizability, Alpha (input orientation).
 (esu units = cm**3 , SI units = C**2 m**2 J**-1)
 Alpha(0;0):
               (au)            (10**-24 esu)      (10**-40 SI)
   iso        0.748297D+02      0.110886D+02      0.123378D+02
   aniso      0.465326D+02      0.689542D+01      0.767219D+01
   xx         0.475720D+02      0.704944D+01      0.784356D+01
   yx        -0.104710D+01     -0.155165D+00     -0.172644D+00
   yy         0.774091D+02      0.114708D+02      0.127630D+02
   zx         0.117748D+01      0.174485D+00      0.194141D+00
   zy        -0.632048D+01     -0.936599D+00     -0.104211D+01
   zz         0.995081D+02      0.147456D+02      0.164067D+02

 ----------------------------------------------------------------------

 Dipole orientation:
     6         -3.85048601         -0.48833049          8.66493987
     7         -3.86365661         -0.85804484          5.95501414
     6         -3.93043139         -3.02584268          4.62433985
     7         -3.91502540         -2.54872135          2.19494257
     6         -3.83549829          0.00710207          2.13800299
     7         -3.80217929          1.10509452          4.38013547
     6         -3.78979947          1.45579197         -0.26425752
     8         -3.81969872          0.51050062         -2.31739409
     8         -3.71465078          3.95858806          0.13155098
     1         -3.92088611         -2.32959190          9.57038651
     1         -2.13435738          0.49567262          9.21763644
     1         -5.48783305          0.62281173          9.21529242
     1         -3.98782348         -4.85929872          5.50875462
     1         -3.69091884          4.74804071         -1.51502748

 Electric dipole moment (dipole orientation):
 (Debye = 10**-18 statcoulomb cm , SI units = C m)
                  (au)            (Debye)         (10**-30 SI)
   Tot        0.206382D+01      0.524570D+01      0.174978D+02
   x          0.000000D+00      0.000000D+00      0.000000D+00
   y          0.000000D+00      0.000000D+00      0.000000D+00
   z          0.206382D+01      0.524570D+01      0.174978D+02

 Dipole polarizability, Alpha (dipole orientation).
 (esu units = cm**3 , SI units = C**2 m**2 J**-1)
 Alpha(0;0):
               (au)            (10**-24 esu)      (10**-40 SI)
   iso        0.748297D+02      0.110886D+02      0.123378D+02
   aniso      0.465326D+02      0.689542D+01      0.767219D+01
   xx         0.475460D+02      0.704559D+01      0.783928D+01
   yx         0.926773D+00      0.137334D+00      0.152804D+00
   yy         0.774025D+02      0.114699D+02      0.127620D+02
   zx        -0.192064D+00     -0.284609D-01     -0.316670D-01
   zy        -0.632773D+01     -0.937672D+00     -0.104330D+01
   zz         0.995407D+02      0.147504D+02      0.164120D+02

 ----------------------------------------------------------------------
 Unable to Open any file for archive entry.
 1\1\GINC-AE01\Freq\RM062X\Aug-CC-pVTZ\C4H5N3O2\DHUANG\04-Mar-2025\0\\#
 N Geom=AllCheck Guess=TCheck SCRF=Check GenChk RM062X/Aug-CC-pVTZ Freq
 \\3\\0,1\C,-2.1242017786,0.2607823516,-4.5456770877\N,-2.1039664167,0.
 4556826607,-3.1116706545\C,-2.1259325569,1.6024661999,-2.4063694576\N,
 -2.0933960357,1.3493175235,-1.1213049231\C,-2.0507547585,-0.0031812302
 ,-1.0926792532\N,-2.0556360688,-0.5835980497,-2.2795869434\C,-2.002465
 7823,-0.7704542573,0.1774568688\O,-1.9976727181,-0.270791472,1.2642939
 84\O,-1.9666856824,-2.0947678629,-0.0333997794\H,-2.1705334479,1.23538
 42146,-5.0235203114\H,-1.221779651,-0.2597733792,-4.8555958296\H,-2.99
 60200441,-0.3270618674,-4.8207277589\H,-2.165170817,2.5729318973,-2.87
 32178136\H,-1.937602942,-2.5129801789,0.8373201395\\Version=ES64L-G16R
 evC.01\State=1-A\HF=-470.141385\RMSD=2.820e-09\RMSF=6.238e-05\ZeroPoin
 t=0.1037476\Thermal=0.1116256\ETot=-470.0297594\HTot=-470.0288152\GTot
 =-470.071165\Dipole=-0.0391494,0.0010708,-2.0634449\DipoleDeriv=0.1968
 967,0.0021319,0.0077987,0.0014769,0.155896,0.0357717,0.0053407,0.06652
 6,0.6317089,-0.0877372,0.000247,-0.021416,0.0067134,-0.1324328,0.26910
 37,-0.0092729,-0.0526693,-0.6761537,0.0424317,-0.0062394,0.0029711,-0.
 0055798,0.3212613,0.1656316,0.0033315,0.1407942,0.4457983,-0.2614798,0
 .0063924,-0.0078577,0.0064752,-0.4507245,0.0422422,-0.0067565,0.018115
 ,-0.5925174,0.0836184,-0.006525,-0.0060857,-0.0069566,0.3351241,0.0355
 967,-0.0069067,0.068694,-0.1760971,-0.1552952,0.006821,0.0145866,0.001
 9522,-0.4313137,-0.3444438,0.0070223,-0.1078069,0.0373881,0.3490119,-0
 .044534,0.0351069,-0.0478869,1.8101449,-0.1744447,0.0298565,-0.0017158
 ,1.8939584,-0.3695609,0.0067146,-0.0168478,0.0095759,-0.712938,-0.0422
 201,-0.012394,-0.206534,-1.3365396,-0.360927,0.0331828,-0.0041656,0.03
 35322,-1.4141917,0.0711554,-0.0043747,0.0805816,-0.4591907,0.0917794,0
 .0050124,-0.0037766,0.0064382,-0.0443118,0.0637342,-0.0009844,-0.01196
 93,0.0136973,-0.0102416,0.0498645,0.0520198,0.0447925,0.0618726,-0.049
 9161,-0.0197971,-0.0008803,-0.0291885,-0.0033654,-0.054466,-0.0488415,
 -0.0513747,0.0547164,-0.0515201,0.0191675,0.0027468,-0.0266622,0.15406
 17,0.0036727,-0.0036158,0.0036181,0.0670158,0.0475064,-0.0035179,0.044
 8298,0.0453351,0.3308073,-0.002275,0.0001237,-0.0027766,0.3798815,-0.0
 681971,-0.0007144,-0.0407117,0.2284632\Polar=47.5719841,-1.0471038,77.
 4090935,1.1774822,-6.3204818,99.5081129\Quadrupole=-2.123968,-0.131926
 8,2.2558949,-0.2335615,0.3621813,-9.0443247\PG=C01 [X(C4H5N3O2)]\NImag
 =0\\0.59064361,-0.00134731,0.62441079,-0.00108289,-0.01712728,0.503190
 53,-0.06163531,0.00095524,-0.00250278,0.15802092,0.00118821,-0.1136722
 2,-0.02447093,-0.01430709,0.65623752,-0.00209431,-0.03573432,-0.243327
 93,0.01123302,0.06434004,0.86516808,-0.00770204,-0.00095121,0.00001798
 ,-0.06989352,0.00485971,0.00146840,0.15532098,-0.00070620,0.01064518,-
 0.00585210,0.00455731,-0.27740209,-0.10003169,-0.02497796,0.85853381,0
 .00034412,-0.01961098,-0.01674909,0.00100726,-0.08296691,-0.15580802,0
 .01600363,-0.15881393,0.73087622,0.00880865,0.00020099,0.00002506,0.02
 299825,-0.00074432,-0.00287408,-0.08214469,0.00243972,-0.00802770,0.10
 891360,0.00021561,-0.00160561,-0.00256996,0.00124123,-0.00454254,0.015
 94532,0.00237315,-0.12098959,0.06094746,-0.01253654,0.50606530,0.00022
 083,-0.00782711,0.00601477,0.00018099,-0.08358729,-0.10022886,-0.00810
 046,0.06368882,-0.40150561,0.01014405,-0.00862797,0.62223714,0.0040868
 1,0.00049382,-0.00015852,0.01360624,0.00234615,-0.00286569,0.01041076,
 0.00240359,-0.00459405,-0.08384396,0.00636364,-0.00004620,0.17199611,0
 .00057860,-0.01027708,0.00389612,0.00104055,-0.02310937,-0.00122512,0.
 00416591,-0.04786608,0.12115733,0.00636482,-0.29263847,-0.00727873,-0.
 01715375,0.68818094,-0.00008844,0.00352488,0.00286044,-0.00495371,0.06
 320544,-0.13768614,-0.00178706,0.03057293,-0.03271521,-0.00004081,-0.0
 0725233,-0.09754341,0.01415444,-0.05867749,0.81169344,-0.00618682,0.00
 021991,-0.00051965,-0.07818718,0.00667373,-0.00370177,0.02153690,0.004
 93348,-0.00010142,0.03241845,0.00129129,-0.00089995,-0.08307170,-0.000
 24810,-0.00106426,0.11025924,-0.00043054,0.01048813,0.00333900,0.00579
 491,-0.22607316,0.06254307,0.00364510,-0.11115059,-0.02540394,0.003234
 32,-0.06970297,0.00338747,0.00029853,-0.15837177,-0.10670639,-0.012566
 27,0.54509620,-0.00170762,0.03731721,-0.02819363,-0.00497679,0.1066275
 6,-0.16948081,-0.00221226,0.04259141,-0.02390789,0.00223060,-0.0972885
 3,-0.00896907,-0.00023356,-0.13434602,-0.31100734,0.00739086,0.0506651
 5,0.57596259,0.00188003,-0.00000384,-0.00017780,0.00900241,-0.00037197
 ,0.00041752,0.00695247,0.00056291,0.00022583,-0.00552441,0.00061636,-0
 .00082663,-0.07756340,0.00289543,-0.00406810,-0.00940716,-0.00033282,-
 0.00044905,0.21491273,0.00006612,0.00174470,0.00275950,-0.00033352,0.0
 0830220,-0.01731840,0.00051322,-0.01114592,-0.00271568,0.00095197,-0.0
 1894379,0.02780287,0.00308558,-0.13057537,0.07331282,-0.00066004,0.010
 71953,-0.00205169,-0.01180049,0.68754449,-0.00010504,-0.00013212,-0.00
 322677,0.00053660,-0.02020535,0.00325740,0.00014718,-0.00021962,0.0140
 2268,-0.00026291,0.01001258,-0.00319614,-0.00391559,0.06610504,-0.1720
 5205,-0.00098234,0.01497349,-0.03595450,0.01024471,0.14246445,0.995109
 00,-0.00068441,0.00001015,0.00005961,-0.00194967,0.00002584,-0.0002079
 0,-0.00047910,-0.00010474,-0.00000620,0.00053000,-0.00001320,-0.000026
 15,0.02066733,-0.00020637,-0.00160357,0.00390704,0.00027752,-0.0001331
 2,-0.07961278,-0.00001818,-0.00363746,0.03331716,-0.00002618,-0.000215
 26,-0.00056317,-0.00002763,0.00161140,0.00409127,-0.00011900,0.0015272
 9,-0.00282303,0.00011127,-0.00121367,0.00296754,0.00021187,0.01566292,
 0.00301609,0.00021497,-0.00127836,0.00283448,-0.00022650,-0.22032875,-
 0.24443284,-0.00096741,0.25694025,0.00000653,0.00122418,0.00158230,-0.
 00031323,0.00708937,-0.00634136,-0.00002845,-0.00212609,-0.00543391,0.
 00016946,-0.00345641,0.00398923,-0.00086545,-0.01988131,-0.05842599,-0
 .00024022,0.00633913,0.00136175,-0.00399621,-0.23371190,-0.68055269,0.
 00387971,0.31562123,0.76067318,-0.00021033,0.00000477,0.00007056,-0.00
 065525,0.00016652,-0.00012402,-0.00053827,0.00002883,-0.00007039,0.001
 60465,0.00008007,-0.00027866,0.01100165,0.00211704,-0.00027026,0.00157
 124,0.00009049,0.00000365,-0.06601258,0.00688586,-0.00049799,0.0301747
 7,0.00136247,0.00129600,0.03894869,-0.00003577,-0.00029966,-0.00178186
 ,0.00024388,-0.00518271,0.00487936,0.00001601,0.00013572,0.00184088,0.
 00012218,0.00055359,0.00480308,0.00153313,-0.03688706,0.00482419,-0.00
 000272,0.00008204,-0.00249829,0.00639046,-0.29229832,-0.02352407,0.001
 51843,-0.06171283,-0.06739644,-0.01665404,0.51616869,0.00001239,0.0001
 3208,0.00067226,-0.00002384,0.00148582,0.00049115,-0.00009660,0.002647
 65,-0.00118656,-0.00021431,0.00253789,-0.00550569,-0.00113623,0.033945
 95,0.00535280,-0.00014472,0.00230062,-0.00230286,-0.00132122,0.0042039
 0,-0.12893613,0.00155848,-0.07641565,-0.01005648,0.01359726,-0.1169224
 9,0.57040735,-0.04917191,0.01064646,-0.00525357,-0.00249121,0.00036421
 ,-0.00018502,0.00043647,0.00003434,0.00007086,-0.00054053,-0.00002713,
 -0.00001962,0.00065129,0.00003802,-0.00001165,0.00067402,-0.00007560,-
 0.00004683,0.00005317,-0.00001153,0.00000769,-0.00003140,0.00000055,-0
 .00000908,0.00000317,0.00000214,-0.00000138,0.04583279,0.01089033,-0.2
 7862693,0.11136897,-0.00042458,0.00656005,-0.00405156,-0.00002819,0.00
 036109,-0.00147174,-0.00001902,0.00036460,0.00079715,-0.00000318,0.000
 24632,-0.00085002,-0.00000120,0.00025524,-0.00088502,0.00000241,-0.000
 02468,-0.00018720,-0.00000188,0.00001208,0.00002303,-0.00000049,0.0000
 2323,0.00002735,-0.01175667,0.29510543,-0.00473099,0.09749616,-0.09945
 802,-0.00169074,0.03749215,-0.01985592,-0.00002017,0.00122348,0.001202
 41,0.00001984,-0.00015089,0.00018736,-0.00009454,0.00195297,-0.0014872
 0,-0.00001934,-0.00421618,-0.00537121,0.00003383,-0.00080729,0.0001835
 9,-0.00001462,0.00011705,-0.00052668,-0.00000742,0.00019616,-0.0000488
 2,0.00579622,-0.11657120,0.11569445,-0.24578173,0.11147195,0.06230732,
 0.00677077,-0.00189381,0.00096501,0.00007992,-0.00065641,-0.00124139,-
 0.00036392,-0.00071082,-0.00010172,0.00008542,0.00016991,0.00055811,0.
 00027979,0.00002458,-0.00036547,-0.00006139,0.00020678,-0.00008900,0.0
 0001434,-0.00006222,0.00002509,0.00001317,-0.00011354,0.00000825,0.001
 05071,-0.00124220,-0.00139227,0.25794325,0.10978784,-0.11248683,-0.035
 23482,0.00254021,-0.00306343,-0.00339364,0.00069045,0.00036478,-0.0011
 4245,-0.00058854,-0.00017049,0.00032468,-0.00033990,0.00022321,-0.0001
 3299,-0.00005274,0.00049565,0.00026169,0.00021058,-0.00003878,0.000239
 13,-0.00004066,0.00000079,-0.00012906,-0.00001555,0.00004498,-0.000063
 08,0.02351436,-0.01145984,-0.00848768,-0.12058439,0.11584416,0.0552754
 9,-0.02983516,-0.06460466,0.02925653,-0.02373999,-0.02435913,0.0028468
 6,0.00467618,0.00089508,-0.00163419,0.00126971,-0.00346950,-0.00035193
 ,-0.00260965,-0.00185619,0.00014428,-0.00147965,0.00481167,-0.00028543
 ,-0.00069685,0.00044271,0.00009873,0.00019784,-0.00022561,-0.00000139,
 0.00039706,-0.00006435,-0.01313798,0.00537999,0.00516131,-0.06665743,0
 .04202946,0.08025528,-0.23249874,-0.12164030,-0.05280936,0.00557704,0.
 00160224,-0.00184423,0.00001413,0.00080525,0.00136448,-0.00038239,0.00
 075090,-0.00003230,0.00006859,-0.00027073,-0.00063089,0.00029950,-0.00
 009610,0.00053941,-0.00001844,-0.00023367,0.00009266,0.00000234,0.0000
 6942,-0.00002538,0.00000356,0.00012621,-0.00000605,0.00324750,0.002573
 42,0.00210850,-0.02010115,-0.01546591,-0.00549036,0.24368795,-0.120167
 52,-0.12998968,-0.03518259,-0.00201928,-0.00315250,-0.00337455,-0.0007
 5200,0.00036798,-0.00103056,0.00056979,-0.00008952,0.00031073,0.000339
 94,0.00023321,-0.00016960,0.00004765,0.00051347,0.00029635,-0.00019980
 ,-0.00006111,0.00024784,0.00003565,0.00000708,-0.00013019,0.00001123,0
 .00005184,-0.00006398,-0.02271211,-0.01305651,-0.00747164,0.01338733,0
 .01012173,0.00462301,0.13179446,0.13494791,-0.04612482,-0.02912219,-0.
 06036981,-0.02859507,-0.02607905,-0.02310514,-0.00310011,0.00448565,0.
 00088278,0.00143079,0.00129839,-0.00352632,0.00042233,-0.00255886,-0.0
 0181243,0.00015556,-0.00145598,0.00479613,0.00034028,-0.00066040,0.000
 41783,-0.00011781,0.00018744,-0.00021376,-0.00002476,0.00038816,-0.000
 06189,0.01280869,0.00628886,0.00458878,0.00600128,0.00561866,0.0030415
 1,0.05672951,0.04181744,0.07539416,-0.00155030,-0.00005884,0.00003391,
 -0.00152501,0.00010750,-0.00019512,-0.03370455,0.01066893,-0.00499476,
 -0.00325692,0.00032135,-0.00016224,0.00754053,0.00023283,-0.00023756,0
 .00659493,0.00016908,-0.00007063,0.00109980,0.00004195,-0.00000035,-0.
 00005457,0.00000002,-0.00000494,-0.00025026,0.00000419,-0.00000792,0.0
 0028452,0.00001164,0.00001056,0.00007272,0.00034379,-0.00007433,0.0001
 0146,-0.00033567,0.00008320,0.02480982,-0.00001687,-0.00017691,0.00115
 135,0.00075837,-0.01729105,0.01362638,0.01056110,-0.30279255,0.1123680
 1,-0.00017344,0.00346339,0.00184802,0.00019200,0.00085988,-0.00085604,
 0.00019473,-0.00142408,-0.00282502,0.00002851,0.00023078,0.00007221,0.
 00000114,-0.00003656,0.00009043,-0.00000797,0.00002416,0.00003065,-0.0
 0001611,0.00022944,-0.00073660,-0.00000689,0.00013553,-0.00018562,-0.0
 0000519,0.00011815,-0.00018230,-0.01150321,0.31661557,0.00007630,-0.00
 029330,0.00169461,0.00083211,-0.01887895,0.01095115,-0.00514561,0.1170
 1476,-0.11086195,-0.00096496,0.02765039,-0.00866622,-0.00030260,0.0012
 0059,-0.00623988,-0.00002840,-0.00421002,-0.00155738,-0.00002395,0.000
 78011,0.00117415,-0.00000256,0.00003230,-0.00015585,-0.00002496,0.0006
 2591,-0.00057876,-0.00001865,0.00013785,-0.00027499,-0.00001623,0.0000
 9882,-0.00003641,0.00000285,0.00011640,-0.00004019,0.00561688,-0.12441
 215,0.11455608,0.00000249,-0.00000180,-0.00000989,0.00036152,-0.000016
 92,0.00000819,-0.00028947,0.00001094,0.00001973,0.00078321,0.00003410,
 -0.00005196,0.00436434,0.00027583,0.00004374,-0.00068826,-0.00003320,0
 .00003080,0.00429956,0.00130596,-0.00153817,-0.00580104,-0.00054161,0.
 00010618,-0.01565420,0.00684945,-0.01222410,0.00000141,-0.00000038,0.0
 0000114,-0.00000190,0.00000047,0.00001117,-0.00000135,0.00000032,-0.00
 000906,-0.00016217,-0.00000618,-0.00000022,0.01278585,0.00000368,0.000
 06139,0.00026776,-0.00001959,0.00077792,-0.00029615,0.00000373,-0.0005
 8903,-0.00033446,0.00006680,-0.00055022,0.00139071,0.00022858,-0.00568
 127,-0.00381148,-0.00004471,0.00035068,-0.00069927,0.00222876,-0.03512
 497,0.05458646,-0.00051630,0.00902362,-0.00355598,0.00593076,-0.120703
 67,0.14615329,-0.00000092,0.00001048,-0.00003649,0.00000974,-0.0000114
 7,-0.00002633,-0.00000999,-0.00001202,-0.00002582,-0.00000355,0.000044
 25,0.00013732,-0.00787699,0.15240432,-0.00000156,-0.00001204,-0.000085
 00,0.00000965,-0.00031190,0.00032553,0.00000666,0.00014255,0.00028904,
 -0.00000083,-0.00031565,0.00018230,-0.00001240,-0.00168082,0.00091917,
 0.00001138,-0.00007577,-0.00018744,-0.00011380,0.00663857,0.00931091,0
 .00015285,-0.00483055,-0.00567415,-0.01366764,0.19416834,-0.42818202,0
 .00000032,-0.00000648,0.00000492,-0.00000154,0.00001129,0.00000829,0.0
 0000115,0.00001134,0.00000837,0.00000331,0.00001068,0.00003564,0.01361
 246,-0.19374955,0.42304443\\0.00001188,-0.00002841,0.00002121,-0.00000
 142,-0.00006150,0.00008027,0.00002168,-0.00000877,0.00011681,-0.000022
 37,0.00000626,-0.00008275,-0.00005791,0.00003503,-0.00019480,-0.000029
 12,0.00002189,0.00004857,0.00024495,-0.00001755,-0.00004671,-0.0000926
 7,0.00000047,0.00001960,-0.00007493,0.00004503,-0.00002801,-0.00000406
 ,0.00000401,0.00001326,-0.00002713,0.00001834,0.00000206,0.00003152,0.
 00001372,0.00000783,0.00000018,-0.00001210,0.00000992,-0.00000061,-0.0
 0001641,0.00003275\\\@
 The archive entry for this job was punched.


 THE SOLUTION TO A PROBLEM CHANGES THE PROBLEM.

                                 -- JOHN PEERS
           PAUL DICKSON'S "THE OFFICIAL RULES"
 Job cpu time:       0 days  8 hours 24 minutes 55.8 seconds.
 Elapsed time:       0 days  0 hours 25 minutes 15.1 seconds.
 File lengths (MBytes):  RWF=    301 Int=      0 D2E=      0 Chk=     23 Scr=      1
 Normal termination of Gaussian 16 at Tue Mar  4 18:02:31 2025.
