 Entering Gaussian System, Link 0=g16
 Initial command:
 /usr/local/gaussian16c01/g16/l1.exe "/scr/dhuang/Gau-66974.inp" -scrdir="/scr/dhuang/"
 Entering Link 1 = /usr/local/gaussian16c01/g16/l1.exe PID=     66976.
  
 Copyright (c) 1988-2019, Gaussian, Inc.  All Rights Reserved.
  
 This is part of the Gaussian(R) 16 program.  It is based on
 the Gaussian(R) 09 system (copyright 2009, Gaussian, Inc.),
 the Gaussian(R) 03 system (copyright 2003, Gaussian, Inc.),
 the Gaussian(R) 98 system (copyright 1998, Gaussian, Inc.),
 the Gaussian(R) 94 system (copyright 1995, Gaussian, Inc.),
 the Gaussian 92(TM) system (copyright 1992, Gaussian, Inc.),
 the Gaussian 90(TM) system (copyright 1990, Gaussian, Inc.),
 the Gaussian 88(TM) system (copyright 1988, Gaussian, Inc.),
 the Gaussian 86(TM) system (copyright 1986, Carnegie Mellon
 University), and the Gaussian 82(TM) system (copyright 1983,
 Carnegie Mellon University). Gaussian is a federally registered
 trademark of Gaussian, Inc.
  
 This software contains proprietary and confidential information,
 including trade secrets, belonging to Gaussian, Inc.
  
 This software is provided under written license and may be
 used, copied, transmitted, or stored only in accord with that
 written license.
  
 The following legend is applicable only to US Government
 contracts under FAR:
  
                    RESTRICTED RIGHTS LEGEND
  
 Use, reproduction and disclosure by the US Government is
 subject to restrictions as set forth in subparagraphs (a)
 and (c) of the Commercial Computer Software - Restricted
 Rights clause in FAR 52.227-19.
  
 Gaussian, Inc.
 340 Quinnipiac St., Bldg. 40, Wallingford CT 06492
  
  
 ---------------------------------------------------------------
 Warning -- This program may not be used in any manner that
 competes with the business of Gaussian, Inc. or will provide
 assistance to any competitor of Gaussian, Inc.  The licensee
 of this program is prohibited from giving any competitor of
 Gaussian, Inc. access to this program.  By using this program,
 the user acknowledges that Gaussian, Inc. is engaged in the
 business of creating and licensing software in the field of
 computational chemistry and represents and warrants to the
 licensee that it is not a competitor of Gaussian, Inc. and that
 it will not use this program in any manner prohibited above.
 ---------------------------------------------------------------
  

 Cite this work as:
 Gaussian 16, Revision C.01,
 M. J. Frisch, G. W. Trucks, H. B. Schlegel, G. E. Scuseria, 
 M. A. Robb, J. R. Cheeseman, G. Scalmani, V. Barone, 
 G. A. Petersson, H. Nakatsuji, X. Li, M. Caricato, A. V. Marenich, 
 J. Bloino, B. G. Janesko, R. Gomperts, B. Mennucci, H. P. Hratchian, 
 J. V. Ortiz, A. F. Izmaylov, J. L. Sonnenberg, D. Williams-Young, 
 F. Ding, F. Lipparini, F. Egidi, J. Goings, B. Peng, A. Petrone, 
 T. Henderson, D. Ranasinghe, V. G. Zakrzewski, J. Gao, N. Rega, 
 G. Zheng, W. Liang, M. Hada, M. Ehara, K. Toyota, R. Fukuda, 
 J. Hasegawa, M. Ishida, T. Nakajima, Y. Honda, O. Kitao, H. Nakai, 
 T. Vreven, K. Throssell, J. A. Montgomery, Jr., J. E. Peralta, 
 F. Ogliaro, M. J. Bearpark, J. J. Heyd, E. N. Brothers, K. N. Kudin, 
 V. N. Staroverov, T. A. Keith, R. Kobayashi, J. Normand, 
 K. Raghavachari, A. P. Rendell, J. C. Burant, S. S. Iyengar, 
 J. Tomasi, M. Cossi, J. M. Millam, M. Klene, C. Adamo, R. Cammi, 
 J. W. Ochterski, R. L. Martin, K. Morokuma, O. Farkas, 
 J. B. Foresman, and D. J. Fox, Gaussian, Inc., Wallingford CT, 2019.
 
 ******************************************
 Gaussian 16:  ES64L-G16RevC.01  3-Jul-2019
                 4-Mar-2025 
 ******************************************
 %nprocshared=20
 Will use up to   20 processors via shared memory.
 %mem=10000MW
 %chk=4.chk
 ------------------------------------
 # opt freq m062x/aug-cc-pvtz pop=nbo
 ------------------------------------
 1/18=20,19=15,26=3,38=1/1,3;
 2/9=110,12=2,17=6,18=5,40=1/2;
 3/5=16,6=1,7=10,11=2,25=1,30=1,71=1,74=-55/1,2,3;
 4//1;
 5/5=2,38=5/2;
 6/7=2,8=2,9=2,10=2,28=1,40=1/1,7;
 7//1,2,3,16;
 1/18=20,19=15,26=3/3(2);
 2/9=110/2;
 99//99;
 2/9=110/2;
 3/5=16,6=1,7=10,11=2,25=1,30=1,71=1,74=-55/1,2,3;
 4/5=5,16=3,69=1/1;
 5/5=2,38=5/2;
 7//1,2,3,16;
 1/18=20,19=15,26=3/3(-5);
 2/9=110/2;
 6/7=2,8=2,9=2,10=2,19=2,28=1,40=1/1,7;
 99/9=1/99;
 -
 4
 -
 Symbolic Z-matrix:
 Charge =  0 Multiplicity = 1
 C                     1.07256  -2.81892   3.14097 
 N                    -0.08055  -2.14135   2.52023 
 C                    -0.9802   -1.63371   3.25708 
 C                    -1.86274  -1.10814   2.39961 
 C                    -1.36986  -1.37186   1.17704 
 N                    -0.27811  -2.00578   1.30861 
 C                    -1.9797   -0.9988    0.0179 
 O                    -1.47569  -1.27158  -1.05612 
 O                    -3.1551   -0.3195    0.0416 
 H                     1.04553  -2.80231   4.25362 
 H                     1.1019   -3.8836    2.81469 
 H                     2.01704  -2.32652   2.81492 
 H                    -0.98764  -1.64872   4.35172 
 H                    -2.78455  -0.5796    2.6705 
 H                    -3.45407  -0.13072  -0.8612 
 

 GradGradGradGradGradGradGradGradGradGradGradGradGradGradGradGradGradGrad
 Berny optimization.
 Initialization pass.
                           ----------------------------
                           !    Initial Parameters    !
                           ! (Angstroms and Degrees)  !
 --------------------------                            --------------------------
 ! Name  Definition              Value          Derivative Info.                !
 --------------------------------------------------------------------------------
 ! R1    R(1,2)                  1.4745         estimate D2E/DX2                !
 ! R2    R(1,10)                 1.1131         estimate D2E/DX2                !
 ! R3    R(1,11)                 1.1139         estimate D2E/DX2                !
 ! R4    R(1,12)                 1.1139         estimate D2E/DX2                !
 ! R5    R(2,3)                  1.2689         estimate D2E/DX2                !
 ! R6    R(2,6)                  1.2351         estimate D2E/DX2                !
 ! R7    R(3,4)                  1.338          estimate D2E/DX2                !
 ! R8    R(3,13)                 1.0948         estimate D2E/DX2                !
 ! R9    R(4,5)                  1.3443         estimate D2E/DX2                !
 ! R10   R(4,14)                 1.0966         estimate D2E/DX2                !
 ! R11   R(5,6)                  1.2693         estimate D2E/DX2                !
 ! R12   R(5,7)                  1.3619         estimate D2E/DX2                !
 ! R13   R(7,8)                  1.2174         estimate D2E/DX2                !
 ! R14   R(7,9)                  1.3578         estimate D2E/DX2                !
 ! R15   R(9,15)                 0.9696         estimate D2E/DX2                !
 ! A1    A(2,1,10)             113.2638         estimate D2E/DX2                !
 ! A2    A(2,1,11)             109.6635         estimate D2E/DX2                !
 ! A3    A(2,1,12)             109.6775         estimate D2E/DX2                !
 ! A4    A(10,1,11)            107.9204         estimate D2E/DX2                !
 ! A5    A(10,1,12)            107.8534         estimate D2E/DX2                !
 ! A6    A(11,1,12)            108.3267         estimate D2E/DX2                !
 ! A7    A(1,2,3)              119.5946         estimate D2E/DX2                !
 ! A8    A(1,2,6)              126.0526         estimate D2E/DX2                !
 ! A9    A(3,2,6)              114.3529         estimate D2E/DX2                !
 ! A10   A(2,3,4)              104.6347         estimate D2E/DX2                !
 ! A11   A(2,3,13)             125.4492         estimate D2E/DX2                !
 ! A12   A(4,3,13)             129.9161         estimate D2E/DX2                !
 ! A13   A(3,4,5)              105.3028         estimate D2E/DX2                !
 ! A14   A(3,4,14)             125.8366         estimate D2E/DX2                !
 ! A15   A(5,4,14)             128.8605         estimate D2E/DX2                !
 ! A16   A(4,5,6)              108.6064         estimate D2E/DX2                !
 ! A17   A(4,5,7)              123.7893         estimate D2E/DX2                !
 ! A18   A(6,5,7)              127.6043         estimate D2E/DX2                !
 ! A19   A(2,6,5)              107.1032         estimate D2E/DX2                !
 ! A20   A(5,7,8)              120.2744         estimate D2E/DX2                !
 ! A21   A(5,7,9)              120.6533         estimate D2E/DX2                !
 ! A22   A(8,7,9)              119.0723         estimate D2E/DX2                !
 ! A23   A(7,9,15)             110.3706         estimate D2E/DX2                !
 ! D1    D(10,1,2,3)            -0.9753         estimate D2E/DX2                !
 ! D2    D(10,1,2,6)           179.0009         estimate D2E/DX2                !
 ! D3    D(11,1,2,3)           119.6413         estimate D2E/DX2                !
 ! D4    D(11,1,2,6)           -60.3825         estimate D2E/DX2                !
 ! D5    D(12,1,2,3)          -121.5163         estimate D2E/DX2                !
 ! D6    D(12,1,2,6)            58.4599         estimate D2E/DX2                !
 ! D7    D(1,2,3,4)            179.9844         estimate D2E/DX2                !
 ! D8    D(1,2,3,13)            -0.0278         estimate D2E/DX2                !
 ! D9    D(6,2,3,4)              0.0055         estimate D2E/DX2                !
 ! D10   D(6,2,3,13)           179.9933         estimate D2E/DX2                !
 ! D11   D(1,2,6,5)           -179.9817         estimate D2E/DX2                !
 ! D12   D(3,2,6,5)             -0.0044         estimate D2E/DX2                !
 ! D13   D(2,3,4,5)             -0.0042         estimate D2E/DX2                !
 ! D14   D(2,3,4,14)           179.9971         estimate D2E/DX2                !
 ! D15   D(13,3,4,5)          -179.9913         estimate D2E/DX2                !
 ! D16   D(13,3,4,14)            0.0101         estimate D2E/DX2                !
 ! D17   D(3,4,5,6)              0.0019         estimate D2E/DX2                !
 ! D18   D(3,4,5,7)            179.9985         estimate D2E/DX2                !
 ! D19   D(14,4,5,6)          -179.9995         estimate D2E/DX2                !
 ! D20   D(14,4,5,7)            -0.0029         estimate D2E/DX2                !
 ! D21   D(4,5,6,2)              0.0013         estimate D2E/DX2                !
 ! D22   D(7,5,6,2)           -179.9952         estimate D2E/DX2                !
 ! D23   D(4,5,7,8)           -179.9987         estimate D2E/DX2                !
 ! D24   D(4,5,7,9)             -0.0091         estimate D2E/DX2                !
 ! D25   D(6,5,7,8)             -0.0027         estimate D2E/DX2                !
 ! D26   D(6,5,7,9)            179.9869         estimate D2E/DX2                !
 ! D27   D(5,7,9,15)          -180.0            estimate D2E/DX2                !
 ! D28   D(8,7,9,15)            -0.0102         estimate D2E/DX2                !
 --------------------------------------------------------------------------------
 Trust Radius=3.00D-01 FncErr=1.00D-07 GrdErr=1.00D-06 EigMax=2.50D+02 EigMin=1.00D-04
 Number of steps in this run=     76 maximum allowed number of steps=    100.
 GradGradGradGradGradGradGradGradGradGradGradGradGradGradGradGradGradGrad

                          Input orientation:                          
 ---------------------------------------------------------------------
 Center     Atomic      Atomic             Coordinates (Angstroms)
 Number     Number       Type             X           Y           Z
 ---------------------------------------------------------------------
      1          6           0        1.072562   -2.818925    3.140973
      2          7           0       -0.080552   -2.141351    2.520229
      3          6           0       -0.980201   -1.633708    3.257077
      4          6           0       -1.862741   -1.108143    2.399613
      5          6           0       -1.369857   -1.371861    1.177036
      6          7           0       -0.278113   -2.005782    1.308608
      7          6           0       -1.979700   -0.998800    0.017900
      8          8           0       -1.475687   -1.271583   -1.056125
      9          8           0       -3.155100   -0.319500    0.041600
     10          1           0        1.045526   -2.802309    4.253617
     11          1           0        1.101897   -3.883600    2.814694
     12          1           0        2.017036   -2.326522    2.814923
     13          1           0       -0.987645   -1.648723    4.351723
     14          1           0       -2.784547   -0.579603    2.670498
     15          1           0       -3.454070   -0.130724   -0.861196
 ---------------------------------------------------------------------
                    Distance matrix (angstroms):
                    1          2          3          4          5
     1  C    0.000000
     2  N    1.474483   0.000000
     3  C    2.373195   1.268863   0.000000
     4  C    3.477412   2.063556   1.338036   0.000000
     5  C    3.452021   2.014594   2.132361   1.344312   0.000000
     6  N    2.417247   1.235085   2.104257   2.122992   1.269280
     7  C    4.731040   3.342729   3.448822   2.387088   1.361866
     8  O    5.148152   3.936141   4.356644   3.481184   2.237915
     9  O    5.807440   4.349206   4.098368   2.802208   2.363001
    10  H    1.113096   2.170150   2.542104   3.842597   4.164806
    11  H    1.113935   2.126106   3.097232   4.082221   3.885913
    12  H    1.113912   2.126266   3.107881   4.087738   3.881378
    13  H    2.660778   2.102349   1.094775   2.206526   3.209576
    14  H    4.484774   3.126216   2.170455   1.096567   2.204416
    15  H    6.613182   5.182401   5.033801   3.757731   3.168399
                    6          7          8          9         10
     6  N    0.000000
     7  C    2.361216   0.000000
     8  O    2.750490   1.217361   0.000000
     9  O    3.567340   1.357783   2.220786   0.000000
    10  H    3.325590   5.508715   6.073960   6.445982   0.000000
    11  H    2.774693   5.063632   5.333836   6.206036   1.800797
    12  H    2.763976   5.055698   5.319494   6.202455   1.800012
    13  H    3.145072   4.493172   5.442907   5.004184   2.339694
    14  H    3.189191   2.803530   4.009946   2.667596   4.702781
    15  H    4.279088   1.923573   2.292063   0.969567   7.317448
                   11         12         13         14         15
    11  H    0.000000
    12  H    1.806093   0.000000
    13  H    3.423933   3.442277   0.000000
    14  H    5.103100   5.111534   2.682982   0.000000
    15  H    6.953637   6.947545   5.963396   3.622515   0.000000
 Stoichiometry    C5H6N2O2
 Framework group  C1[X(C5H6N2O2)]
 Deg. of freedom    39
 Full point group                 C1      NOp   1
 Largest Abelian subgroup         C1      NOp   1
 Largest concise Abelian subgroup C1      NOp   1
                         Standard orientation:                         
 ---------------------------------------------------------------------
 Center     Atomic      Atomic             Coordinates (Angstroms)
 Number     Number       Type             X           Y           Z
 ---------------------------------------------------------------------
      1          6           0        2.991176   -0.636228   -0.000065
      2          7           0        1.614888   -0.107141    0.000159
      3          6           0        1.425887    1.147567    0.000009
      4          6           0        0.095349    1.289020   -0.000070
      5          6           0       -0.394532    0.037145   -0.000048
      6          7           0        0.578111   -0.778354    0.000077
      7          6           0       -1.724537   -0.255714   -0.000081
      8          8           0       -2.097819   -1.414432   -0.000034
      9          8           0       -2.651778    0.736153    0.000045
     10          1           0        3.768412    0.160373   -0.017765
     11          1           0        3.155092   -1.254832    0.911699
     12          1           0        3.144341   -1.282726   -0.894146
     13          1           0        2.213198    1.908273    0.000151
     14          1           0       -0.449087    2.240886   -0.000157
     15          1           0       -3.546236    0.361980    0.000001
 ---------------------------------------------------------------------
 Rotational constants (GHZ):           4.8420152           1.1310862           0.9224017
 Standard basis: Aug-CC-pVTZ (5D, 7F)
 There are   645 symmetry adapted cartesian basis functions of A   symmetry.
 There are   552 symmetry adapted basis functions of A   symmetry.
   552 basis functions,   810 primitive gaussians,   645 cartesian basis functions
    33 alpha electrons       33 beta electrons
       nuclear repulsion energy       446.0729774272 Hartrees.
 NAtoms=   15 NActive=   15 NUniq=   15 SFac= 1.00D+00 NAtFMM=   60 NAOKFM=F Big=F
 Integral buffers will be    131072 words long.
 Raffenetti 2 integral format.
 Two-electron integral symmetry is turned on.
 One-electron integrals computed using PRISM.
 NBasis=   552 RedAO= T EigKep=  1.57D-06  NBF=   552
 NBsUse=   552 1.00D-06 EigRej= -1.00D+00 NBFU=   552
 ExpMin= 2.53D-02 ExpMax= 1.53D+04 ExpMxC= 5.22D+02 IAcc=3 IRadAn=         5 AccDes= 0.00D+00
 Harris functional with IExCor= 1009 and IRadAn=       5 diagonalized for initial guess.
 HarFok:  IExCor= 1009 AccDes= 0.00D+00 IRadAn=         5 IDoV= 1 UseB2=F ITyADJ=14
 ICtDFT=  3500011 ScaDFX=  1.000000  1.000000  1.000000  1.000000
 FoFCou: FMM=F IPFlag=           0 FMFlag=      100000 FMFlg1=           0
         NFxFlg=           0 DoJE=T BraDBF=F KetDBF=T FulRan=T
         wScrn=  0.000000 ICntrl=       500 IOpCl=  0 I1Cent=   200000004 NGrid=           0
         NMat0=    1 NMatS0=      1 NMatT0=    0 NMatD0=    1 NMtDS0=    0 NMtDT0=    0
 Petite list used in FoFCou.
 Requested convergence on RMS density matrix=1.00D-08 within 128 cycles.
 Requested convergence on MAX density matrix=1.00D-06.
 Requested convergence on             energy=1.00D-06.
 No special actions if energy rises.
 SCF Done:  E(RM062X) =  -454.038942406     A.U. after   14 cycles
            NFock= 14  Conv=0.38D-08     -V/T= 2.0028

 **********************************************************************

            Population analysis using the SCF Density.

 **********************************************************************

 Orbital symmetries:
       Occupied  (A) (A) (A) (A) (A) (A) (A) (A) (A) (A) (A) (A)
                 (A) (A) (A) (A) (A) (A) (A) (A) (A) (A) (A) (A)
                 (A) (A) (A) (A) (A) (A) (A) (A) (A)
       Virtual   (A) (A) (A) (A) (A) (A) (A) (A) (A) (A) (A) (A)
                 (A) (A) (A) (A) (A) (A) (A) (A) (A) (A) (A) (A)
                 (A) (A) (A) (A) (A) (A) (A) (A) (A) (A) (A) (A)
                 (A) (A) (A) (A) (A) (A) (A) (A) (A) (A) (A) (A)
                 (A) (A) (A) (A) (A) (A) (A) (A) (A) (A) (A) (A)
                 (A) (A) (A) (A) (A) (A) (A) (A) (A) (A) (A) (A)
                 (A) (A) (A) (A) (A) (A) (A) (A) (A) (A) (A) (A)
                 (A) (A) (A) (A) (A) (A) (A) (A) (A) (A) (A) (A)
                 (A) (A) (A) (A) (A) (A) (A) (A) (A) (A) (A) (A)
                 (A) (A) (A) (A) (A) (A) (A) (A) (A) (A) (A) (A)
                 (A) (A) (A) (A) (A) (A) (A) (A) (A) (A) (A) (A)
                 (A) (A) (A) (A) (A) (A) (A) (A) (A) (A) (A) (A)
                 (A) (A) (A) (A) (A) (A) (A) (A) (A) (A) (A) (A)
                 (A) (A) (A) (A) (A) (A) (A) (A) (A) (A) (A) (A)
                 (A) (A) (A) (A) (A) (A) (A) (A) (A) (A) (A) (A)
                 (A) (A) (A) (A) (A) (A) (A) (A) (A) (A) (A) (A)
                 (A) (A) (A) (A) (A) (A) (A) (A) (A) (A) (A) (A)
                 (A) (A) (A) (A) (A) (A) (A) (A) (A) (A) (A) (A)
                 (A) (A) (A) (A) (A) (A) (A) (A) (A) (A) (A) (A)
                 (A) (A) (A) (A) (A) (A) (A) (A) (A) (A) (A) (A)
                 (A) (A) (A) (A) (A) (A) (A) (A) (A) (A) (A) (A)
                 (A) (A) (A) (A) (A) (A) (A) (A) (A) (A) (A) (A)
                 (A) (A) (A) (A) (A) (A) (A) (A) (A) (A) (A) (A)
                 (A) (A) (A) (A) (A) (A) (A) (A) (A) (A) (A) (A)
                 (A) (A) (A) (A) (A) (A) (A) (A) (A) (A) (A) (A)
                 (A) (A) (A) (A) (A) (A) (A) (A) (A) (A) (A) (A)
                 (A) (A) (A) (A) (A) (A) (A) (A) (A) (A) (A) (A)
                 (A) (A) (A) (A) (A) (A) (A) (A) (A) (A) (A) (A)
                 (A) (A) (A) (A) (A) (A) (A) (A) (A) (A) (A) (A)
                 (A) (A) (A) (A) (A) (A) (A) (A) (A) (A) (A) (A)
                 (A) (A) (A) (A) (A) (A) (A) (A) (A) (A) (A) (A)
                 (A) (A) (A) (A) (A) (A) (A) (A) (A) (A) (A) (A)
                 (A) (A) (A) (A) (A) (A) (A) (A) (A) (A) (A) (A)
                 (A) (A) (A) (A) (A) (A) (A) (A) (A) (A) (A) (A)
                 (A) (A) (A) (A) (A) (A) (A) (A) (A) (A) (A) (A)
                 (A) (A) (A) (A) (A) (A) (A) (A) (A) (A) (A) (A)
                 (A) (A) (A) (A) (A) (A) (A) (A) (A) (A) (A) (A)
                 (A) (A) (A) (A) (A) (A) (A) (A) (A) (A) (A) (A)
                 (A) (A) (A) (A) (A) (A) (A) (A) (A) (A) (A) (A)
                 (A) (A) (A) (A) (A) (A) (A) (A) (A) (A) (A) (A)
                 (A) (A) (A) (A) (A) (A) (A) (A) (A) (A) (A) (A)
                 (A) (A) (A) (A) (A) (A) (A) (A) (A) (A) (A) (A)
                 (A) (A) (A) (A) (A) (A) (A) (A) (A) (A) (A) (A)
                 (A) (A) (A)
 The electronic state is 1-A.
 Alpha  occ. eigenvalues --  -19.66556 -19.59751 -14.85577 -14.77323 -10.66468
 Alpha  occ. eigenvalues --  -10.60865 -10.56997 -10.55481 -10.53122  -1.26220
 Alpha  occ. eigenvalues --   -1.22576  -1.12382  -0.99009  -0.92731  -0.85280
 Alpha  occ. eigenvalues --   -0.75744  -0.72784  -0.64835  -0.64533  -0.60912
 Alpha  occ. eigenvalues --   -0.57210  -0.55945  -0.53343  -0.51661  -0.51323
 Alpha  occ. eigenvalues --   -0.48902  -0.47346  -0.46359  -0.39310  -0.37291
 Alpha  occ. eigenvalues --   -0.34528  -0.33377  -0.32902
 Alpha virt. eigenvalues --   -0.01411   0.00020   0.00074   0.00711   0.01541
 Alpha virt. eigenvalues --    0.01871   0.02995   0.04208   0.04473   0.04703
 Alpha virt. eigenvalues --    0.05438   0.06049   0.07230   0.07276   0.07908
 Alpha virt. eigenvalues --    0.08379   0.08728   0.08851   0.09242   0.09424
 Alpha virt. eigenvalues --    0.10244   0.10327   0.10798   0.11831   0.12667
 Alpha virt. eigenvalues --    0.13298   0.13734   0.14204   0.15253   0.15567
 Alpha virt. eigenvalues --    0.16754   0.16995   0.17295   0.17305   0.17338
 Alpha virt. eigenvalues --    0.17727   0.19265   0.20161   0.20575   0.21547
 Alpha virt. eigenvalues --    0.22465   0.22920   0.22975   0.23538   0.23737
 Alpha virt. eigenvalues --    0.23949   0.24815   0.25653   0.25747   0.26182
 Alpha virt. eigenvalues --    0.26724   0.27504   0.28460   0.28634   0.28691
 Alpha virt. eigenvalues --    0.29798   0.30064   0.30989   0.31295   0.31417
 Alpha virt. eigenvalues --    0.32229   0.32873   0.33040   0.34264   0.34375
 Alpha virt. eigenvalues --    0.34602   0.36317   0.36380   0.36507   0.36937
 Alpha virt. eigenvalues --    0.37894   0.38226   0.38650   0.38801   0.39145
 Alpha virt. eigenvalues --    0.39663   0.40283   0.40450   0.41748   0.42280
 Alpha virt. eigenvalues --    0.42356   0.42865   0.43619   0.43681   0.45627
 Alpha virt. eigenvalues --    0.46066   0.46317   0.47461   0.48573   0.49749
 Alpha virt. eigenvalues --    0.51186   0.51967   0.53204   0.53498   0.54155
 Alpha virt. eigenvalues --    0.55094   0.55490   0.55614   0.56470   0.57251
 Alpha virt. eigenvalues --    0.58002   0.58559   0.60404   0.61033   0.61502
 Alpha virt. eigenvalues --    0.62607   0.63863   0.64514   0.65070   0.66348
 Alpha virt. eigenvalues --    0.66697   0.67007   0.68207   0.68564   0.69104
 Alpha virt. eigenvalues --    0.70048   0.71586   0.72946   0.73041   0.73523
 Alpha virt. eigenvalues --    0.73567   0.74749   0.75265   0.75357   0.75854
 Alpha virt. eigenvalues --    0.76502   0.77175   0.77544   0.77963   0.78821
 Alpha virt. eigenvalues --    0.78950   0.79260   0.80208   0.80611   0.80970
 Alpha virt. eigenvalues --    0.81589   0.82997   0.85356   0.85406   0.86727
 Alpha virt. eigenvalues --    0.86975   0.87592   0.87708   0.87987   0.89242
 Alpha virt. eigenvalues --    0.90802   0.90909   0.91770   0.92075   0.93213
 Alpha virt. eigenvalues --    0.93806   0.95859   0.96196   0.96662   0.97611
 Alpha virt. eigenvalues --    0.98289   0.98908   0.99964   1.00707   1.01640
 Alpha virt. eigenvalues --    1.01891   1.02912   1.03348   1.04512   1.05047
 Alpha virt. eigenvalues --    1.05862   1.07295   1.07657   1.07790   1.09745
 Alpha virt. eigenvalues --    1.09771   1.10008   1.10523   1.10809   1.11357
 Alpha virt. eigenvalues --    1.12950   1.13711   1.14998   1.15617   1.16817
 Alpha virt. eigenvalues --    1.17142   1.19416   1.20596   1.21860   1.22838
 Alpha virt. eigenvalues --    1.23130   1.24603   1.25215   1.25484   1.28248
 Alpha virt. eigenvalues --    1.28650   1.29081   1.29151   1.30618   1.30729
 Alpha virt. eigenvalues --    1.33051   1.33508   1.33952   1.35017   1.35546
 Alpha virt. eigenvalues --    1.36305   1.36876   1.39856   1.40406   1.40954
 Alpha virt. eigenvalues --    1.41556   1.42812   1.45005   1.45175   1.46139
 Alpha virt. eigenvalues --    1.46381   1.47972   1.49222   1.49794   1.50647
 Alpha virt. eigenvalues --    1.51036   1.51762   1.52469   1.54202   1.55703
 Alpha virt. eigenvalues --    1.56179   1.56862   1.58774   1.59458   1.60854
 Alpha virt. eigenvalues --    1.61521   1.63410   1.64425   1.65106   1.65521
 Alpha virt. eigenvalues --    1.67462   1.68571   1.72141   1.72192   1.72450
 Alpha virt. eigenvalues --    1.73425   1.74468   1.74834   1.76060   1.76342
 Alpha virt. eigenvalues --    1.78593   1.81424   1.81647   1.82912   1.83821
 Alpha virt. eigenvalues --    1.84752   1.85700   1.88383   1.89201   1.90119
 Alpha virt. eigenvalues --    1.90335   1.92331   1.93971   1.95148   1.97545
 Alpha virt. eigenvalues --    1.98104   1.98438   1.98992   2.02328   2.02569
 Alpha virt. eigenvalues --    2.04303   2.06130   2.08024   2.09629   2.10751
 Alpha virt. eigenvalues --    2.11093   2.11479   2.14153   2.15430   2.15525
 Alpha virt. eigenvalues --    2.18022   2.18887   2.19668   2.23767   2.24168
 Alpha virt. eigenvalues --    2.24192   2.26226   2.27017   2.28596   2.31442
 Alpha virt. eigenvalues --    2.32129   2.33875   2.36379   2.36558   2.36948
 Alpha virt. eigenvalues --    2.39325   2.40116   2.41328   2.43386   2.44083
 Alpha virt. eigenvalues --    2.46887   2.48257   2.48732   2.50080   2.52659
 Alpha virt. eigenvalues --    2.55800   2.56308   2.59029   2.61093   2.63880
 Alpha virt. eigenvalues --    2.67975   2.68806   2.70475   2.73764   2.74626
 Alpha virt. eigenvalues --    2.75823   2.77948   2.78120   2.82860   2.83556
 Alpha virt. eigenvalues --    2.84100   2.84290   2.87853   2.89314   2.94200
 Alpha virt. eigenvalues --    2.96757   2.96961   3.03447   3.04492   3.05339
 Alpha virt. eigenvalues --    3.06630   3.08176   3.08535   3.12384   3.13243
 Alpha virt. eigenvalues --    3.15481   3.16629   3.17974   3.20470   3.21060
 Alpha virt. eigenvalues --    3.23306   3.25827   3.26613   3.27117   3.27977
 Alpha virt. eigenvalues --    3.28250   3.28929   3.32560   3.33546   3.34117
 Alpha virt. eigenvalues --    3.35167   3.38919   3.42230   3.42585   3.43275
 Alpha virt. eigenvalues --    3.45340   3.45611   3.48977   3.49341   3.50588
 Alpha virt. eigenvalues --    3.51162   3.53255   3.54153   3.55305   3.58011
 Alpha virt. eigenvalues --    3.58712   3.59337   3.64196   3.65400   3.66361
 Alpha virt. eigenvalues --    3.66497   3.68312   3.68759   3.70217   3.73411
 Alpha virt. eigenvalues --    3.74011   3.74675   3.74906   3.76453   3.80465
 Alpha virt. eigenvalues --    3.80775   3.83048   3.83466   3.85487   3.87902
 Alpha virt. eigenvalues --    3.88002   3.90059   3.91012   3.93409   3.93827
 Alpha virt. eigenvalues --    3.97584   3.98715   3.99023   4.01905   4.02144
 Alpha virt. eigenvalues --    4.04209   4.07344   4.07937   4.09196   4.10871
 Alpha virt. eigenvalues --    4.14229   4.14584   4.15129   4.19361   4.21035
 Alpha virt. eigenvalues --    4.22245   4.24565   4.26335   4.26807   4.29130
 Alpha virt. eigenvalues --    4.30721   4.34434   4.34605   4.37327   4.37941
 Alpha virt. eigenvalues --    4.38612   4.43207   4.45144   4.47939   4.49324
 Alpha virt. eigenvalues --    4.50528   4.52920   4.54643   4.55851   4.56566
 Alpha virt. eigenvalues --    4.57505   4.61226   4.62375   4.63555   4.67094
 Alpha virt. eigenvalues --    4.67163   4.68609   4.71781   4.72310   4.74220
 Alpha virt. eigenvalues --    4.75644   4.76650   4.79646   4.79870   4.81057
 Alpha virt. eigenvalues --    4.85185   4.86173   4.91836   4.94980   5.00061
 Alpha virt. eigenvalues --    5.02596   5.05120   5.05518   5.05943   5.07208
 Alpha virt. eigenvalues --    5.09351   5.12348   5.12688   5.15507   5.17559
 Alpha virt. eigenvalues --    5.25224   5.27205   5.27506   5.29334   5.30955
 Alpha virt. eigenvalues --    5.38068   5.40093   5.44974   5.45891   5.51902
 Alpha virt. eigenvalues --    5.52484   5.52718   5.55862   5.63121   5.65058
 Alpha virt. eigenvalues --    5.68060   5.68859   5.72022   5.75851   5.77835
 Alpha virt. eigenvalues --    5.78774   5.82819   5.86344   5.96482   6.07128
 Alpha virt. eigenvalues --    6.08006   6.09840   6.13031   6.19585   6.22127
 Alpha virt. eigenvalues --    6.23223   6.25598   6.28084   6.31312   6.32323
 Alpha virt. eigenvalues --    6.34560   6.37682   6.41627   6.42352   6.48452
 Alpha virt. eigenvalues --    6.55144   6.56329   6.61249   6.67809   6.71655
 Alpha virt. eigenvalues --    6.75640   6.78365   6.79805   6.83551   6.84481
 Alpha virt. eigenvalues --    6.86251   6.88975   6.92492   6.99268   7.08094
 Alpha virt. eigenvalues --    7.08860   7.14270   7.22748   7.33709   7.38119
 Alpha virt. eigenvalues --    7.53208   7.61935   7.76657   7.87310   8.05421
 Alpha virt. eigenvalues --   15.03592  15.94298  17.02622  17.82644  18.51008
 Alpha virt. eigenvalues --   18.73482  19.74878  20.30588  21.21905
          Condensed to atoms (all electrons):
               1          2          3          4          5          6
     1  C    5.836674   0.484528  -0.319415   0.006272  -0.048191  -0.246419
     2  N    0.484528   9.516120   1.057052  -0.552582  -0.388051  -3.962931
     3  C   -0.319415   1.057052   8.095031  -0.867047   0.016107  -1.183438
     4  C    0.006272  -0.552582  -0.867047   7.431375  -0.064440   0.355047
     5  C   -0.048191  -0.388051   0.016107  -0.064440   6.570133  -0.070993
     6  N   -0.246419  -3.962931  -1.183438   0.355047  -0.070993  13.350598
     7  C    0.031303   0.094825  -0.053553  -0.132122  -1.029765  -0.031050
     8  O   -0.008526  -0.018380   0.006097  -0.006788   0.256495  -0.161219
     9  O   -0.002310  -0.004964   0.026866  -0.084716   0.006986  -0.003155
    10  H    0.355494   0.061063   0.071790  -0.024054  -0.011069  -0.080455
    11  H    0.365642  -0.064442  -0.000013  -0.001030  -0.000525   0.029653
    12  H    0.364693  -0.071081  -0.001279  -0.001348   0.000024   0.039050
    13  H   -0.043819  -0.056603   0.242745  -0.111402  -0.016552  -0.061586
    14  H   -0.004462  -0.002126   0.004094   0.241170  -0.054720   0.032588
    15  H    0.001124   0.002354  -0.003229   0.004667  -0.073029   0.013015
               7          8          9         10         11         12
     1  C    0.031303  -0.008526  -0.002310   0.355494   0.365642   0.364693
     2  N    0.094825  -0.018380  -0.004964   0.061063  -0.064442  -0.071081
     3  C   -0.053553   0.006097   0.026866   0.071790  -0.000013  -0.001279
     4  C   -0.132122  -0.006788  -0.084716  -0.024054  -0.001030  -0.001348
     5  C   -1.029765   0.256495   0.006986  -0.011069  -0.000525   0.000024
     6  N   -0.031050  -0.161219  -0.003155  -0.080455   0.029653   0.039050
     7  C    6.597510  -0.232356   0.036919   0.000937   0.002334   0.002497
     8  O   -0.232356   9.204580  -0.065186  -0.000709   0.000174   0.000187
     9  O    0.036919  -0.065186   8.497328   0.000048  -0.000137  -0.000134
    10  H    0.000937  -0.000709   0.000048   0.368054   0.006181   0.004936
    11  H    0.002334   0.000174  -0.000137   0.006181   0.323667   0.011424
    12  H    0.002497   0.000187  -0.000134   0.004936   0.011424   0.325216
    13  H   -0.003180   0.000804  -0.001150  -0.020464   0.002302   0.002144
    14  H    0.045367   0.005468   0.006381  -0.000949  -0.000561  -0.000536
    15  H    0.114947  -0.093494   0.137621   0.000105  -0.000002  -0.000002
              13         14         15
     1  C   -0.043819  -0.004462   0.001124
     2  N   -0.056603  -0.002126   0.002354
     3  C    0.242745   0.004094  -0.003229
     4  C   -0.111402   0.241170   0.004667
     5  C   -0.016552  -0.054720  -0.073029
     6  N   -0.061586   0.032588   0.013015
     7  C   -0.003180   0.045367   0.114947
     8  O    0.000804   0.005468  -0.093494
     9  O   -0.001150   0.006381   0.137621
    10  H   -0.020464  -0.000949   0.000105
    11  H    0.002302  -0.000561  -0.000002
    12  H    0.002144  -0.000536  -0.000002
    13  H    0.440703  -0.046715  -0.000147
    14  H   -0.046715   0.511900  -0.004055
    15  H   -0.000147  -0.004055   0.613390
 Mulliken charges:
               1
     1  C   -0.772588
     2  N    0.905219
     3  C   -1.091808
     4  C   -0.193003
     5  C    0.907592
     6  N   -1.018704
     7  C    0.555386
     8  O   -0.887145
     9  O   -0.550396
    10  H    0.269094
    11  H    0.325333
    12  H    0.324209
    13  H    0.672920
    14  H    0.267155
    15  H    0.286734
 Sum of Mulliken charges =   0.00000
 Mulliken charges with hydrogens summed into heavy atoms:
               1
     1  C    0.146049
     2  N    0.905219
     3  C   -0.418888
     4  C    0.074152
     5  C    0.907592
     6  N   -1.018704
     7  C    0.555386
     8  O   -0.887145
     9  O   -0.263662
 Electronic spatial extent (au):  <R**2>=           1205.4281
 Charge=              0.0000 electrons
 Dipole moment (field-independent basis, Debye):
    X=              3.9321    Y=              2.9412    Z=             -0.0017  Tot=              4.9104
 Quadrupole moment (field-independent basis, Debye-Ang):
   XX=            -35.3140   YY=            -56.6344   ZZ=            -52.3036
   XY=             -4.0321   XZ=             -0.0084   YZ=              0.0025
 Traceless Quadrupole moment (field-independent basis, Debye-Ang):
   XX=             12.7700   YY=             -8.5504   ZZ=             -4.2196
   XY=             -4.0321   XZ=             -0.0084   YZ=              0.0025
 Octapole moment (field-independent basis, Debye-Ang**2):
  XXX=             -3.9089  YYY=             12.4141  ZZZ=              0.0379  XYY=             13.5556
  XXY=              6.6073  XXZ=             -0.0487  XZZ=             -3.4745  YZZ=             -4.4964
  YYZ=             -0.0368  XYZ=             -0.0033
 Hexadecapole moment (field-independent basis, Debye-Ang**3):
 XXXX=           -872.8687 YYYY=           -320.5707 ZZZZ=            -58.8755 XXXY=            -35.0344
 XXXZ=             -0.2449 YYYX=             -8.7531 YYYZ=              0.0966 ZZZX=              0.1271
 ZZZY=             -0.0288 XXYY=           -259.4609 XXZZ=           -202.5267 YYZZ=            -65.9230
 XXYZ=             -0.0582 YYXZ=             -0.1069 ZZXY=             -4.8292
 N-N= 4.460729774272D+02 E-N=-1.953915392674D+03  KE= 4.527794714660D+02
 ******************************Gaussian NBO Version 3.1******************************
             N A T U R A L   A T O M I C   O R B I T A L   A N D
          N A T U R A L   B O N D   O R B I T A L   A N A L Y S I S
 ******************************Gaussian NBO Version 3.1******************************
       /RESON  / : Allow strongly delocalized NBO set

 Analyzing the SCF density

 Job title: 4                                                               

 Storage needed:    916440 in NPA,   1220743 in NBO (********** available)
 GSVD:  LWork=       -2616 too small for GESVD, short by      613746 words or      613746 for optimal perf.


 NATURAL POPULATIONS:  Natural atomic orbital occupancies 
                                                          
   NAO  Atom  No  lang   Type(AO)    Occupancy      Energy
 ----------------------------------------------------------
     1    C    1  S      Cor( 1S)     1.99943     -10.48149
     2    C    1  S      Val( 2S)     1.10042      -0.34695
     3    C    1  S      Ryd( 3S)     0.00060       1.11781
     4    C    1  S      Ryd( 4S)     0.00008       3.05421
     5    C    1  S      Ryd( 5S)     0.00001       3.28338
     6    C    1  px     Val( 2p)     0.87620      -0.10854
     7    C    1  px     Ryd( 4p)     0.00166       1.19424
     8    C    1  px     Ryd( 5p)     0.00010       1.63490
     9    C    1  px     Ryd( 3p)     0.00001       1.05276
    10    C    1  py     Val( 2p)     1.17063      -0.16004
    11    C    1  py     Ryd( 4p)     0.00207       1.14910
    12    C    1  py     Ryd( 5p)     0.00007       1.87926
    13    C    1  py     Ryd( 3p)     0.00001       1.12277
    14    C    1  pz     Val( 2p)     1.22283      -0.16876
    15    C    1  pz     Ryd( 4p)     0.00065       1.08752
    16    C    1  pz     Ryd( 5p)     0.00004       1.75566
    17    C    1  pz     Ryd( 3p)     0.00001       0.91718
    18    C    1  dxy    Ryd( 4d)     0.00144       1.88487
    19    C    1  dxy    Ryd( 5d)     0.00009       3.49110
    20    C    1  dxy    Ryd( 3d)     0.00004       1.64050
    21    C    1  dxz    Ryd( 4d)     0.00041       1.50536
    22    C    1  dxz    Ryd( 5d)     0.00004       3.03339
    23    C    1  dxz    Ryd( 3d)     0.00002       1.11964
    24    C    1  dyz    Ryd( 4d)     0.00225       1.62500
    25    C    1  dyz    Ryd( 5d)     0.00002       3.30700
    26    C    1  dyz    Ryd( 3d)     0.00001       1.44678
    27    C    1  dx2y2  Ryd( 4d)     0.00065       1.89924
    28    C    1  dx2y2  Ryd( 5d)     0.00005       3.42766
    29    C    1  dx2y2  Ryd( 3d)     0.00002       1.23848
    30    C    1  dz2    Ryd( 4d)     0.00180       1.82108
    31    C    1  dz2    Ryd( 5d)     0.00005       3.37999
    32    C    1  dz2    Ryd( 3d)     0.00001       1.49451
    33    C    1  f(0)   Ryd( 5f)     0.00000       3.81178
    34    C    1  f(0)   Ryd( 4f)     0.00003       2.10885
    35    C    1  f(C1)  Ryd( 5f)     0.00004       3.84636
    36    C    1  f(C1)  Ryd( 4f)     0.00004       3.37050
    37    C    1  f(S1)  Ryd( 5f)     0.00019       4.15897
    38    C    1  f(S1)  Ryd( 4f)     0.00003       3.08645
    39    C    1  f(C2)  Ryd( 5f)     0.00001       3.76972
    40    C    1  f(C2)  Ryd( 4f)     0.00002       2.58699
    41    C    1  f(S2)  Ryd( 5f)     0.00003       3.82689
    42    C    1  f(S2)  Ryd( 4f)     0.00002       2.28122
    43    C    1  f(C3)  Ryd( 5f)     0.00004       3.99448
    44    C    1  f(C3)  Ryd( 4f)     0.00002       2.68835
    45    C    1  f(S3)  Ryd( 5f)     0.00005       4.03075
    46    C    1  f(S3)  Ryd( 4f)     0.00006       2.59224
 
    47    N    2  S      Cor( 1S)     1.99925     -14.65672
    48    N    2  S      Val( 2S)     1.12529      -0.54080
    49    N    2  S      Ryd( 3S)     0.00279       1.64897
    50    N    2  S      Ryd( 5S)     0.00011       6.32210
    51    N    2  S      Ryd( 4S)     0.00002       5.84102
    52    N    2  px     Val( 2p)     1.22854      -0.29105
    53    N    2  px     Ryd( 4p)     0.00369       2.17763
    54    N    2  px     Ryd( 5p)     0.00011       4.58459
    55    N    2  px     Ryd( 3p)     0.00005       2.08363
    56    N    2  py     Val( 2p)     1.27177      -0.30793
    57    N    2  py     Ryd( 4p)     0.00584       2.08279
    58    N    2  py     Ryd( 5p)     0.00019       3.82235
    59    N    2  py     Ryd( 3p)     0.00007       1.63441
    60    N    2  pz     Val( 2p)     1.45890      -0.32672
    61    N    2  pz     Ryd( 3p)     0.00382       0.88139
    62    N    2  pz     Ryd( 5p)     0.00004       2.88528
    63    N    2  pz     Ryd( 4p)     0.00005       1.03087
    64    N    2  dxy    Ryd( 3d)     0.00064       3.32118
    65    N    2  dxy    Ryd( 5d)     0.00057       4.82254
    66    N    2  dxy    Ryd( 4d)     0.00010       4.19317
    67    N    2  dxz    Ryd( 3d)     0.00101       1.91547
    68    N    2  dxz    Ryd( 5d)     0.00018       3.78452
    69    N    2  dxz    Ryd( 4d)     0.00008       2.82213
    70    N    2  dyz    Ryd( 3d)     0.00202       1.69030
    71    N    2  dyz    Ryd( 5d)     0.00002       3.64148
    72    N    2  dyz    Ryd( 4d)     0.00001       2.89918
    73    N    2  dx2y2  Ryd( 4d)     0.00387       4.21552
    74    N    2  dx2y2  Ryd( 5d)     0.00023       4.77439
    75    N    2  dx2y2  Ryd( 3d)     0.00016       3.41437
    76    N    2  dz2    Ryd( 3d)     0.00175       2.10146
    77    N    2  dz2    Ryd( 4d)     0.00032       4.12876
    78    N    2  dz2    Ryd( 5d)     0.00009       4.72357
    79    N    2  f(0)   Ryd( 4f)     0.00141       1.64324
    80    N    2  f(0)   Ryd( 5f)     0.00013       4.85470
    81    N    2  f(C1)  Ryd( 4f)     0.00155       2.23885
    82    N    2  f(C1)  Ryd( 5f)     0.00011       4.93028
    83    N    2  f(S1)  Ryd( 4f)     0.00107       2.07238
    84    N    2  f(S1)  Ryd( 5f)     0.00013       4.83540
    85    N    2  f(C2)  Ryd( 4f)     0.00060       1.69909
    86    N    2  f(C2)  Ryd( 5f)     0.00007       4.92847
    87    N    2  f(S2)  Ryd( 4f)     0.00026       1.58080
    88    N    2  f(S2)  Ryd( 5f)     0.00005       4.94672
    89    N    2  f(C3)  Ryd( 4f)     0.00145       2.23571
    90    N    2  f(C3)  Ryd( 5f)     0.00021       5.49855
    91    N    2  f(S3)  Ryd( 4f)     0.00049       2.43408
    92    N    2  f(S3)  Ryd( 5f)     0.00016       5.45598
 
    93    C    3  S      Cor( 1S)     1.99906     -10.40795
    94    C    3  S      Val( 2S)     0.90990      -0.15777
    95    C    3  S      Ryd( 4S)     0.00143       2.00857
    96    C    3  S      Ryd( 5S)     0.00013       2.74056
    97    C    3  S      Ryd( 3S)     0.00003       1.41672
    98    C    3  px     Val( 2p)     1.13078      -0.10948
    99    C    3  px     Ryd( 5p)     0.00365       1.82942
   100    C    3  px     Ryd( 3p)     0.00009       1.36672
   101    C    3  px     Ryd( 4p)     0.00004       1.37395
   102    C    3  py     Val( 2p)     0.94994      -0.04764
   103    C    3  py     Ryd( 5p)     0.00385       1.71314
   104    C    3  py     Ryd( 3p)     0.00012       1.26571
   105    C    3  py     Ryd( 4p)     0.00007       1.49193
   106    C    3  pz     Val( 2p)     1.05700      -0.14451
   107    C    3  pz     Ryd( 5p)     0.00203       1.06362
   108    C    3  pz     Ryd( 4p)     0.00003       1.00609
   109    C    3  pz     Ryd( 3p)     0.00004       0.78338
   110    C    3  dxy    Ryd( 3d)     0.00077       2.41146
   111    C    3  dxy    Ryd( 5d)     0.00015       3.07460
   112    C    3  dxy    Ryd( 4d)     0.00008       2.97754
   113    C    3  dxz    Ryd( 3d)     0.00081       1.72842
   114    C    3  dxz    Ryd( 5d)     0.00015       2.51221
   115    C    3  dxz    Ryd( 4d)     0.00004       1.97660
   116    C    3  dyz    Ryd( 3d)     0.00059       1.67594
   117    C    3  dyz    Ryd( 5d)     0.00020       2.58068
   118    C    3  dyz    Ryd( 4d)     0.00005       1.95204
   119    C    3  dx2y2  Ryd( 4d)     0.00093       3.27876
   120    C    3  dx2y2  Ryd( 5d)     0.00032       3.56523
   121    C    3  dx2y2  Ryd( 3d)     0.00005       2.45346
   122    C    3  dz2    Ryd( 3d)     0.00086       2.62193
   123    C    3  dz2    Ryd( 4d)     0.00022       3.41296
   124    C    3  dz2    Ryd( 5d)     0.00007       3.58387
   125    C    3  f(0)   Ryd( 5f)     0.00015       3.34597
   126    C    3  f(0)   Ryd( 4f)     0.00003       2.25372
   127    C    3  f(C1)  Ryd( 5f)     0.00028       3.71145
   128    C    3  f(C1)  Ryd( 4f)     0.00006       3.30991
   129    C    3  f(S1)  Ryd( 5f)     0.00015       3.69032
   130    C    3  f(S1)  Ryd( 4f)     0.00004       3.04822
   131    C    3  f(C2)  Ryd( 5f)     0.00000       3.47845
   132    C    3  f(C2)  Ryd( 4f)     0.00001       2.33638
   133    C    3  f(S2)  Ryd( 5f)     0.00002       3.56314
   134    C    3  f(S2)  Ryd( 4f)     0.00002       2.51335
   135    C    3  f(C3)  Ryd( 4f)     0.00009       4.27667
   136    C    3  f(C3)  Ryd( 5f)     0.00010       4.81484
   137    C    3  f(S3)  Ryd( 4f)     0.00009       4.21497
   138    C    3  f(S3)  Ryd( 5f)     0.00004       5.17008
 
   139    C    4  S      Cor( 1S)     1.99906     -10.36505
   140    C    4  S      Val( 2S)     0.96100      -0.18126
   141    C    4  S      Ryd( 4S)     0.00130       1.93095
   142    C    4  S      Ryd( 5S)     0.00008       3.70316
   143    C    4  S      Ryd( 3S)     0.00005       1.39324
   144    C    4  px     Val( 2p)     1.06941      -0.07584
   145    C    4  px     Ryd( 4p)     0.00280       1.80019
   146    C    4  px     Ryd( 5p)     0.00012       2.40408
   147    C    4  px     Ryd( 3p)     0.00006       0.65404
   148    C    4  py     Val( 2p)     1.14834      -0.07035
   149    C    4  py     Ryd( 4p)     0.00367       1.93330
   150    C    4  py     Ryd( 5p)     0.00008       2.14118
   151    C    4  py     Ryd( 3p)     0.00007       0.70629
   152    C    4  pz     Val( 2p)     1.06730      -0.12741
   153    C    4  pz     Ryd( 4p)     0.00098       1.14402
   154    C    4  pz     Ryd( 5p)     0.00011       1.68440
   155    C    4  pz     Ryd( 3p)     0.00002       0.40311
   156    C    4  dxy    Ryd( 4d)     0.00110       2.58310
   157    C    4  dxy    Ryd( 5d)     0.00012       3.61929
   158    C    4  dxy    Ryd( 3d)     0.00007       2.49303
   159    C    4  dxz    Ryd( 3d)     0.00098       1.52195
   160    C    4  dxz    Ryd( 5d)     0.00004       2.88943
   161    C    4  dxz    Ryd( 4d)     0.00005       1.74258
   162    C    4  dyz    Ryd( 4d)     0.00085       1.52300
   163    C    4  dyz    Ryd( 5d)     0.00004       2.97491
   164    C    4  dyz    Ryd( 3d)     0.00003       1.39505
   165    C    4  dx2y2  Ryd( 4d)     0.00147       3.30231
   166    C    4  dx2y2  Ryd( 5d)     0.00038       3.83789
   167    C    4  dx2y2  Ryd( 3d)     0.00005       2.18136
   168    C    4  dz2    Ryd( 3d)     0.00136       2.06935
   169    C    4  dz2    Ryd( 5d)     0.00013       3.60316
   170    C    4  dz2    Ryd( 4d)     0.00011       3.52184
   171    C    4  f(0)   Ryd( 5f)     0.00021       3.60205
   172    C    4  f(0)   Ryd( 4f)     0.00002       2.03800
   173    C    4  f(C1)  Ryd( 5f)     0.00024       3.82187
   174    C    4  f(C1)  Ryd( 4f)     0.00006       3.03935
   175    C    4  f(S1)  Ryd( 5f)     0.00025       3.79757
   176    C    4  f(S1)  Ryd( 4f)     0.00003       2.76583
   177    C    4  f(C2)  Ryd( 5f)     0.00001       3.70580
   178    C    4  f(C2)  Ryd( 4f)     0.00001       2.13181
   179    C    4  f(S2)  Ryd( 5f)     0.00001       3.69990
   180    C    4  f(S2)  Ryd( 4f)     0.00001       2.06688
   181    C    4  f(C3)  Ryd( 4f)     0.00018       4.47847
   182    C    4  f(C3)  Ryd( 5f)     0.00007       4.63379
   183    C    4  f(S3)  Ryd( 4f)     0.00005       4.65526
   184    C    4  f(S3)  Ryd( 5f)     0.00014       4.73390
 
   185    C    5  S      Cor( 1S)     1.99884     -10.38526
   186    C    5  S      Val( 2S)     0.84811      -0.07493
   187    C    5  S      Ryd( 4S)     0.00230       1.96906
   188    C    5  S      Ryd( 5S)     0.00010       2.40810
   189    C    5  S      Ryd( 3S)     0.00005       1.87638
   190    C    5  px     Val( 2p)     1.05745      -0.08344
   191    C    5  px     Ryd( 5p)     0.00460       2.37798
   192    C    5  px     Ryd( 4p)     0.00017       1.80315
   193    C    5  px     Ryd( 3p)     0.00007       1.01118
   194    C    5  py     Val( 2p)     1.03143      -0.07480
   195    C    5  py     Ryd( 5p)     0.00847       1.85967
   196    C    5  py     Ryd( 4p)     0.00011       1.68677
   197    C    5  py     Ryd( 3p)     0.00006       1.27331
   198    C    5  pz     Val( 2p)     1.09798      -0.13153
   199    C    5  pz     Ryd( 4p)     0.00214       1.04677
   200    C    5  pz     Ryd( 5p)     0.00018       1.28034
   201    C    5  pz     Ryd( 3p)     0.00003       0.75556
   202    C    5  dxy    Ryd( 3d)     0.00088       2.41482
   203    C    5  dxy    Ryd( 4d)     0.00081       4.13770
   204    C    5  dxy    Ryd( 5d)     0.00008       4.89558
   205    C    5  dxz    Ryd( 3d)     0.00023       1.40773
   206    C    5  dxz    Ryd( 5d)     0.00029       3.17803
   207    C    5  dxz    Ryd( 4d)     0.00012       2.30067
   208    C    5  dyz    Ryd( 3d)     0.00162       1.08825
   209    C    5  dyz    Ryd( 5d)     0.00007       3.03596
   210    C    5  dyz    Ryd( 4d)     0.00006       2.39667
   211    C    5  dx2y2  Ryd( 3d)     0.00348       2.37489
   212    C    5  dx2y2  Ryd( 4d)     0.00034       3.83451
   213    C    5  dx2y2  Ryd( 5d)     0.00006       4.56635
   214    C    5  dz2    Ryd( 3d)     0.00171       1.78759
   215    C    5  dz2    Ryd( 4d)     0.00030       4.19800
   216    C    5  dz2    Ryd( 5d)     0.00009       4.47646
   217    C    5  f(0)   Ryd( 4f)     0.00049       1.53366
   218    C    5  f(0)   Ryd( 5f)     0.00028       3.45440
   219    C    5  f(C1)  Ryd( 4f)     0.00123       1.95886
   220    C    5  f(C1)  Ryd( 5f)     0.00041       3.72173
   221    C    5  f(S1)  Ryd( 4f)     0.00069       1.68640
   222    C    5  f(S1)  Ryd( 5f)     0.00023       3.51459
   223    C    5  f(C2)  Ryd( 4f)     0.00117       1.61586
   224    C    5  f(C2)  Ryd( 5f)     0.00005       3.46888
   225    C    5  f(S2)  Ryd( 4f)     0.00061       1.36284
   226    C    5  f(S2)  Ryd( 5f)     0.00004       3.54385
   227    C    5  f(C3)  Ryd( 4f)     0.00161       2.41596
   228    C    5  f(C3)  Ryd( 5f)     0.00020       4.34712
   229    C    5  f(S3)  Ryd( 4f)     0.00169       2.47999
   230    C    5  f(S3)  Ryd( 5f)     0.00019       4.45777
 
   231    N    6  S      Cor( 1S)     1.99930     -14.55649
   232    N    6  S      Val( 2S)     1.31513      -0.52015
   233    N    6  S      Ryd( 4S)     0.00265       2.99024
   234    N    6  S      Ryd( 3S)     0.00012       2.20775
   235    N    6  S      Ryd( 5S)     0.00002       9.77398
   236    N    6  px     Val( 2p)     1.02431      -0.12566
   237    N    6  px     Ryd( 4p)     0.00381       2.50116
   238    N    6  px     Ryd( 3p)     0.00010       1.98261
   239    N    6  px     Ryd( 5p)     0.00010       2.72029
   240    N    6  py     Val( 2p)     1.61295      -0.26946
   241    N    6  py     Ryd( 3p)     0.00447       1.70114
   242    N    6  py     Ryd( 5p)     0.00016       3.08819
   243    N    6  py     Ryd( 4p)     0.00011       2.96140
   244    N    6  pz     Val( 2p)     1.20388      -0.21061
   245    N    6  pz     Ryd( 3p)     0.00222       1.30254
   246    N    6  pz     Ryd( 5p)     0.00007       2.03604
   247    N    6  pz     Ryd( 4p)     0.00004       1.64143
   248    N    6  dxy    Ryd( 4d)     0.00482       3.09675
   249    N    6  dxy    Ryd( 5d)     0.00020       5.56616
   250    N    6  dxy    Ryd( 3d)     0.00010       2.17710
   251    N    6  dxz    Ryd( 4d)     0.00020       1.73495
   252    N    6  dxz    Ryd( 5d)     0.00018       4.87331
   253    N    6  dxz    Ryd( 3d)     0.00004       1.37067
   254    N    6  dyz    Ryd( 4d)     0.00366       1.52993
   255    N    6  dyz    Ryd( 5d)     0.00001       4.75464
   256    N    6  dyz    Ryd( 3d)     0.00004       1.18746
   257    N    6  dx2y2  Ryd( 4d)     0.00190       2.26961
   258    N    6  dx2y2  Ryd( 5d)     0.00033       5.23826
   259    N    6  dx2y2  Ryd( 3d)     0.00029       1.89337
   260    N    6  dz2    Ryd( 3d)     0.00540       2.08431
   261    N    6  dz2    Ryd( 5d)     0.00007       5.22389
   262    N    6  dz2    Ryd( 4d)     0.00008       2.49485
   263    N    6  f(0)   Ryd( 5f)     0.00007       4.55773
   264    N    6  f(0)   Ryd( 4f)     0.00009       2.69283
   265    N    6  f(C1)  Ryd( 5f)     0.00015       4.92000
   266    N    6  f(C1)  Ryd( 4f)     0.00003       4.28219
   267    N    6  f(S1)  Ryd( 5f)     0.00003       4.56229
   268    N    6  f(S1)  Ryd( 4f)     0.00007       3.64689
   269    N    6  f(C2)  Ryd( 5f)     0.00005       4.83659
   270    N    6  f(C2)  Ryd( 4f)     0.00001       2.70054
   271    N    6  f(S2)  Ryd( 5f)     0.00002       4.61041
   272    N    6  f(S2)  Ryd( 4f)     0.00001       2.92972
   273    N    6  f(C3)  Ryd( 5f)     0.00009       5.11098
   274    N    6  f(C3)  Ryd( 4f)     0.00013       4.25965
   275    N    6  f(S3)  Ryd( 5f)     0.00019       5.11234
   276    N    6  f(S3)  Ryd( 4f)     0.00008       4.74527
 
   277    C    7  S      Cor( 1S)     1.99905     -10.52928
   278    C    7  S      Val( 2S)     0.78319      -0.09715
   279    C    7  S      Ryd( 4S)     0.00399       1.97813
   280    C    7  S      Ryd( 3S)     0.00023       1.10562
   281    C    7  S      Ryd( 5S)     0.00011       2.86859
   282    C    7  px     Val( 2p)     0.89626      -0.04062
   283    C    7  px     Ryd( 5p)     0.00476       1.64343
   284    C    7  px     Ryd( 3p)     0.00025       0.81110
   285    C    7  px     Ryd( 4p)     0.00002       1.57266
   286    C    7  py     Val( 2p)     0.75102      -0.00710
   287    C    7  py     Ryd( 4p)     0.01337       1.62531
   288    C    7  py     Ryd( 3p)     0.00008       0.81603
   289    C    7  py     Ryd( 5p)     0.00010       2.52536
   290    C    7  pz     Val( 2p)     0.76067      -0.11368
   291    C    7  pz     Ryd( 4p)     0.00064       1.18497
   292    C    7  pz     Ryd( 3p)     0.00009       0.50899
   293    C    7  pz     Ryd( 5p)     0.00004       1.18601
   294    C    7  dxy    Ryd( 5d)     0.00118       4.19744
   295    C    7  dxy    Ryd( 3d)     0.00009       2.05393
   296    C    7  dxy    Ryd( 4d)     0.00005       3.93701
   297    C    7  dxz    Ryd( 5d)     0.00064       3.24703
   298    C    7  dxz    Ryd( 3d)     0.00009       1.21215
   299    C    7  dxz    Ryd( 4d)     0.00008       2.52567
   300    C    7  dyz    Ryd( 5d)     0.00137       3.40148
   301    C    7  dyz    Ryd( 3d)     0.00006       1.42108
   302    C    7  dyz    Ryd( 4d)     0.00003       2.66607
   303    C    7  dx2y2  Ryd( 5d)     0.00123       4.22621
   304    C    7  dx2y2  Ryd( 3d)     0.00010       2.35166
   305    C    7  dx2y2  Ryd( 4d)     0.00005       4.01255
   306    C    7  dz2    Ryd( 5d)     0.00021       4.47088
   307    C    7  dz2    Ryd( 3d)     0.00017       2.71673
   308    C    7  dz2    Ryd( 4d)     0.00020       3.54739
   309    C    7  f(0)   Ryd( 5f)     0.00014       3.39437
   310    C    7  f(0)   Ryd( 4f)     0.00004       2.60377
   311    C    7  f(C1)  Ryd( 5f)     0.00017       3.61938
   312    C    7  f(C1)  Ryd( 4f)     0.00002       3.21241
   313    C    7  f(S1)  Ryd( 5f)     0.00006       3.52159
   314    C    7  f(S1)  Ryd( 4f)     0.00004       3.36985
   315    C    7  f(C2)  Ryd( 5f)     0.00001       3.41387
   316    C    7  f(C2)  Ryd( 4f)     0.00012       2.74703
   317    C    7  f(S2)  Ryd( 5f)     0.00002       3.49377
   318    C    7  f(S2)  Ryd( 4f)     0.00001       2.96322
   319    C    7  f(C3)  Ryd( 4f)     0.00015       4.48437
   320    C    7  f(C3)  Ryd( 5f)     0.00002       6.80002
   321    C    7  f(S3)  Ryd( 4f)     0.00007       4.40941
   322    C    7  f(S3)  Ryd( 5f)     0.00003       5.93716
 
   323    O    8  S      Cor( 1S)     1.99979     -19.31730
   324    O    8  S      Val( 2S)     1.71091      -0.98526
   325    O    8  S      Ryd( 4S)     0.00099       3.37066
   326    O    8  S      Ryd( 3S)     0.00017       1.64297
   327    O    8  S      Ryd( 5S)     0.00001       8.61744
   328    O    8  px     Val( 2p)     1.83697      -0.32400
   329    O    8  px     Ryd( 4p)     0.00165       1.17305
   330    O    8  px     Ryd( 3p)     0.00005       0.66022
   331    O    8  px     Ryd( 5p)     0.00002       4.62867
   332    O    8  py     Val( 2p)     1.56439      -0.31433
   333    O    8  py     Ryd( 4p)     0.00100       1.32889
   334    O    8  py     Ryd( 3p)     0.00009       0.58529
   335    O    8  py     Ryd( 5p)     0.00007       5.59485
   336    O    8  pz     Val( 2p)     1.44776      -0.27240
   337    O    8  pz     Ryd( 4p)     0.00078       0.88320
   338    O    8  pz     Ryd( 3p)     0.00003       0.51524
   339    O    8  pz     Ryd( 5p)     0.00001       4.19550
   340    O    8  dxy    Ryd( 3d)     0.00675       1.95445
   341    O    8  dxy    Ryd( 4d)     0.00010       2.44050
   342    O    8  dxy    Ryd( 5d)     0.00004       6.63798
   343    O    8  dxz    Ryd( 3d)     0.00068       1.40144
   344    O    8  dxz    Ryd( 4d)     0.00005       1.58009
   345    O    8  dxz    Ryd( 5d)     0.00001       6.55997
   346    O    8  dyz    Ryd( 3d)     0.00626       1.57003
   347    O    8  dyz    Ryd( 4d)     0.00006       1.64321
   348    O    8  dyz    Ryd( 5d)     0.00003       6.53899
   349    O    8  dx2y2  Ryd( 3d)     0.00692       1.94843
   350    O    8  dx2y2  Ryd( 4d)     0.00011       2.39170
   351    O    8  dx2y2  Ryd( 5d)     0.00004       6.69886
   352    O    8  dz2    Ryd( 3d)     0.00283       1.61449
   353    O    8  dz2    Ryd( 4d)     0.00008       2.34595
   354    O    8  dz2    Ryd( 5d)     0.00000       6.63356
   355    O    8  f(0)   Ryd( 4f)     0.00012       3.02236
   356    O    8  f(0)   Ryd( 5f)     0.00000       5.61099
   357    O    8  f(C1)  Ryd( 4f)     0.00004       3.08501
   358    O    8  f(C1)  Ryd( 5f)     0.00001       5.62165
   359    O    8  f(S1)  Ryd( 4f)     0.00013       3.55551
   360    O    8  f(S1)  Ryd( 5f)     0.00001       5.90136
   361    O    8  f(C2)  Ryd( 4f)     0.00027       3.07265
   362    O    8  f(C2)  Ryd( 5f)     0.00002       5.74170
   363    O    8  f(S2)  Ryd( 4f)     0.00016       3.00981
   364    O    8  f(S2)  Ryd( 5f)     0.00001       5.77510
   365    O    8  f(C3)  Ryd( 4f)     0.00049       3.70412
   366    O    8  f(C3)  Ryd( 5f)     0.00002       6.08496
   367    O    8  f(S3)  Ryd( 4f)     0.00038       3.64209
   368    O    8  f(S3)  Ryd( 5f)     0.00003       6.04891
 
   369    O    9  S      Cor( 1S)     1.99978     -19.45603
   370    O    9  S      Val( 2S)     1.67520      -1.02593
   371    O    9  S      Ryd( 3S)     0.00054       1.48045
   372    O    9  S      Ryd( 4S)     0.00009       2.47361
   373    O    9  S      Ryd( 5S)     0.00001       9.89772
   374    O    9  px     Val( 2p)     1.43417      -0.34798
   375    O    9  px     Ryd( 4p)     0.00082       1.15268
   376    O    9  px     Ryd( 3p)     0.00009       0.57225
   377    O    9  px     Ryd( 5p)     0.00005       5.29204
   378    O    9  py     Val( 2p)     1.72307      -0.39932
   379    O    9  py     Ryd( 4p)     0.00064       0.97253
   380    O    9  py     Ryd( 3p)     0.00014       0.58073
   381    O    9  py     Ryd( 5p)     0.00008       4.92041
   382    O    9  pz     Val( 2p)     1.85059      -0.40679
   383    O    9  pz     Ryd( 4p)     0.00122       0.75430
   384    O    9  pz     Ryd( 3p)     0.00004       0.53792
   385    O    9  pz     Ryd( 5p)     0.00001       4.11485
   386    O    9  dxy    Ryd( 3d)     0.00715       2.04072
   387    O    9  dxy    Ryd( 4d)     0.00018       2.51626
   388    O    9  dxy    Ryd( 5d)     0.00004       6.87672
   389    O    9  dxz    Ryd( 3d)     0.00022       1.20571
   390    O    9  dxz    Ryd( 4d)     0.00008       1.90979
   391    O    9  dxz    Ryd( 5d)     0.00002       6.48882
   392    O    9  dyz    Ryd( 3d)     0.00492       1.26513
   393    O    9  dyz    Ryd( 4d)     0.00003       1.71962
   394    O    9  dyz    Ryd( 5d)     0.00004       6.47272
   395    O    9  dx2y2  Ryd( 3d)     0.00292       1.68340
   396    O    9  dx2y2  Ryd( 4d)     0.00009       2.11274
   397    O    9  dx2y2  Ryd( 5d)     0.00006       6.77960
   398    O    9  dz2    Ryd( 3d)     0.00310       1.46417
   399    O    9  dz2    Ryd( 4d)     0.00013       2.27883
   400    O    9  dz2    Ryd( 5d)     0.00001       6.70280
   401    O    9  f(0)   Ryd( 4f)     0.00055       2.73168
   402    O    9  f(0)   Ryd( 5f)     0.00001       5.95193
   403    O    9  f(C1)  Ryd( 4f)     0.00028       3.43788
   404    O    9  f(C1)  Ryd( 5f)     0.00002       6.21681
   405    O    9  f(S1)  Ryd( 4f)     0.00013       3.09121
   406    O    9  f(S1)  Ryd( 5f)     0.00001       6.08622
   407    O    9  f(C2)  Ryd( 4f)     0.00011       2.76963
   408    O    9  f(C2)  Ryd( 5f)     0.00001       6.12325
   409    O    9  f(S2)  Ryd( 4f)     0.00006       2.85678
   410    O    9  f(S2)  Ryd( 5f)     0.00001       5.98200
   411    O    9  f(C3)  Ryd( 4f)     0.00004       3.96998
   412    O    9  f(C3)  Ryd( 5f)     0.00003       6.47941
   413    O    9  f(S3)  Ryd( 4f)     0.00015       4.10565
   414    O    9  f(S3)  Ryd( 5f)     0.00004       6.50595
 
   415    H   10  S      Val( 1S)     0.78466      -0.01718
   416    H   10  S      Ryd( 4S)     0.00019       1.71203
   417    H   10  S      Ryd( 2S)     0.00009       0.57084
   418    H   10  S      Ryd( 3S)     0.00003       1.35002
   419    H   10  px     Ryd( 2p)     0.00060       1.08102
   420    H   10  px     Ryd( 4p)     0.00009       4.13626
   421    H   10  px     Ryd( 3p)     0.00002       2.61644
   422    H   10  py     Ryd( 2p)     0.00045       1.20749
   423    H   10  py     Ryd( 4p)     0.00007       4.00381
   424    H   10  py     Ryd( 3p)     0.00002       2.56443
   425    H   10  pz     Ryd( 2p)     0.00016       0.86735
   426    H   10  pz     Ryd( 4p)     0.00005       3.76861
   427    H   10  pz     Ryd( 3p)     0.00002       1.73302
   428    H   10  dxy    Ryd( 3d)     0.00012       2.33732
   429    H   10  dxy    Ryd( 4d)     0.00001       4.18702
   430    H   10  dxz    Ryd( 3d)     0.00003       1.96440
   431    H   10  dxz    Ryd( 4d)     0.00000       3.41853
   432    H   10  dyz    Ryd( 3d)     0.00001       1.94355
   433    H   10  dyz    Ryd( 4d)     0.00002       3.55175
   434    H   10  dx2y2  Ryd( 3d)     0.00002       2.13257
   435    H   10  dx2y2  Ryd( 4d)     0.00002       3.91540
   436    H   10  dz2    Ryd( 3d)     0.00009       1.99680
   437    H   10  dz2    Ryd( 4d)     0.00002       3.47103
 
   438    H   11  S      Val( 1S)     0.77845      -0.00118
   439    H   11  S      Ryd( 4S)     0.00028       1.87855
   440    H   11  S      Ryd( 2S)     0.00007       0.34563
   441    H   11  S      Ryd( 3S)     0.00003       1.44263
   442    H   11  px     Ryd( 2p)     0.00036       0.82057
   443    H   11  px     Ryd( 4p)     0.00003       3.93249
   444    H   11  px     Ryd( 3p)     0.00004       1.91951
   445    H   11  py     Ryd( 2p)     0.00053       0.89164
   446    H   11  py     Ryd( 4p)     0.00008       4.02628
   447    H   11  py     Ryd( 3p)     0.00002       2.42094
   448    H   11  pz     Ryd( 2p)     0.00059       0.95916
   449    H   11  pz     Ryd( 4p)     0.00009       4.13674
   450    H   11  pz     Ryd( 3p)     0.00001       3.04352
   451    H   11  dxy    Ryd( 3d)     0.00001       2.34784
   452    H   11  dxy    Ryd( 4d)     0.00001       3.22134
   453    H   11  dxz    Ryd( 3d)     0.00002       2.31025
   454    H   11  dxz    Ryd( 4d)     0.00001       3.34699
   455    H   11  dyz    Ryd( 3d)     0.00011       2.33934
   456    H   11  dyz    Ryd( 4d)     0.00001       3.95917
   457    H   11  dx2y2  Ryd( 3d)     0.00002       2.34917
   458    H   11  dx2y2  Ryd( 4d)     0.00002       3.09991
   459    H   11  dz2    Ryd( 3d)     0.00004       2.37678
   460    H   11  dz2    Ryd( 4d)     0.00002       3.72298
 
   461    H   12  S      Val( 1S)     0.77787      -0.00083
   462    H   12  S      Ryd( 4S)     0.00028       1.87832
   463    H   12  S      Ryd( 2S)     0.00007       0.34586
   464    H   12  S      Ryd( 3S)     0.00004       1.44389
   465    H   12  px     Ryd( 2p)     0.00038       0.81179
   466    H   12  px     Ryd( 4p)     0.00003       3.93844
   467    H   12  px     Ryd( 3p)     0.00004       1.91638
   468    H   12  py     Ryd( 2p)     0.00056       0.89035
   469    H   12  py     Ryd( 4p)     0.00009       4.04039
   470    H   12  py     Ryd( 3p)     0.00002       2.48032
   471    H   12  pz     Ryd( 2p)     0.00057       0.94077
   472    H   12  pz     Ryd( 4p)     0.00009       4.11404
   473    H   12  pz     Ryd( 3p)     0.00001       3.01572
   474    H   12  dxy    Ryd( 3d)     0.00001       2.34201
   475    H   12  dxy    Ryd( 4d)     0.00001       3.25043
   476    H   12  dxz    Ryd( 3d)     0.00002       2.30114
   477    H   12  dxz    Ryd( 4d)     0.00001       3.32984
   478    H   12  dyz    Ryd( 3d)     0.00011       2.33705
   479    H   12  dyz    Ryd( 4d)     0.00001       3.98143
   480    H   12  dx2y2  Ryd( 3d)     0.00002       2.34557
   481    H   12  dx2y2  Ryd( 4d)     0.00002       3.13414
   482    H   12  dz2    Ryd( 3d)     0.00004       2.35943
   483    H   12  dz2    Ryd( 4d)     0.00002       3.69938
 
   484    H   13  S      Val( 1S)     0.78023       0.00709
   485    H   13  S      Ryd( 4S)     0.00032       1.89535
   486    H   13  S      Ryd( 2S)     0.00013       0.52343
   487    H   13  S      Ryd( 3S)     0.00003       1.45261
   488    H   13  px     Ryd( 2p)     0.00041       1.07607
   489    H   13  px     Ryd( 4p)     0.00014       4.24162
   490    H   13  px     Ryd( 3p)     0.00003       3.02719
   491    H   13  py     Ryd( 2p)     0.00058       0.91042
   492    H   13  py     Ryd( 4p)     0.00016       4.29564
   493    H   13  py     Ryd( 3p)     0.00006       2.90753
   494    H   13  pz     Ryd( 2p)     0.00112       0.61071
   495    H   13  pz     Ryd( 4p)     0.00000       4.01643
   496    H   13  pz     Ryd( 3p)     0.00004       1.69134
   497    H   13  dxy    Ryd( 3d)     0.00010       2.06552
   498    H   13  dxy    Ryd( 4d)     0.00002       4.11785
   499    H   13  dxz    Ryd( 3d)     0.00002       1.74362
   500    H   13  dxz    Ryd( 4d)     0.00001       3.55475
   501    H   13  dyz    Ryd( 3d)     0.00003       1.77249
   502    H   13  dyz    Ryd( 4d)     0.00001       3.54773
   503    H   13  dx2y2  Ryd( 3d)     0.00004       2.12293
   504    H   13  dx2y2  Ryd( 4d)     0.00003       4.25992
   505    H   13  dz2    Ryd( 3d)     0.00006       1.94746
   506    H   13  dz2    Ryd( 4d)     0.00003       3.65596
 
   507    H   14  S      Val( 1S)     0.76390       0.05203
   508    H   14  S      Ryd( 4S)     0.00032       1.75628
   509    H   14  S      Ryd( 2S)     0.00013       0.97203
   510    H   14  S      Ryd( 3S)     0.00004       1.40602
   511    H   14  px     Ryd( 2p)     0.00053       0.99010
   512    H   14  px     Ryd( 4p)     0.00008       3.68306
   513    H   14  px     Ryd( 3p)     0.00008       3.31299
   514    H   14  py     Ryd( 2p)     0.00099       0.95941
   515    H   14  py     Ryd( 4p)     0.00014       4.76422
   516    H   14  py     Ryd( 3p)     0.00009       3.56596
   517    H   14  pz     Ryd( 2p)     0.00061       0.57837
   518    H   14  pz     Ryd( 3p)     0.00009       2.92356
   519    H   14  pz     Ryd( 4p)     0.00004       2.93440
   520    H   14  dxy    Ryd( 3d)     0.00010       2.06638
   521    H   14  dxy    Ryd( 4d)     0.00002       4.28190
   522    H   14  dxz    Ryd( 3d)     0.00008       1.55781
   523    H   14  dxz    Ryd( 4d)     0.00001       3.56283
   524    H   14  dyz    Ryd( 3d)     0.00002       1.64854
   525    H   14  dyz    Ryd( 4d)     0.00001       3.84227
   526    H   14  dx2y2  Ryd( 3d)     0.00007       2.00215
   527    H   14  dx2y2  Ryd( 4d)     0.00003       4.29260
   528    H   14  dz2    Ryd( 3d)     0.00004       1.95131
   529    H   14  dz2    Ryd( 4d)     0.00003       3.81260
 
   530    H   15  S      Val( 1S)     0.49206       0.14025
   531    H   15  S      Ryd( 4S)     0.00105       1.75606
   532    H   15  S      Ryd( 3S)     0.00023       1.59979
   533    H   15  S      Ryd( 2S)     0.00010       0.58398
   534    H   15  px     Ryd( 2p)     0.00041       1.89897
   535    H   15  px     Ryd( 4p)     0.00032       4.36621
   536    H   15  px     Ryd( 3p)     0.00001       3.14578
   537    H   15  py     Ryd( 2p)     0.00031       1.50012
   538    H   15  py     Ryd( 4p)     0.00009       3.68401
   539    H   15  py     Ryd( 3p)     0.00001       2.73271
   540    H   15  pz     Ryd( 2p)     0.00068       1.16666
   541    H   15  pz     Ryd( 4p)     0.00005       3.37189
   542    H   15  pz     Ryd( 3p)     0.00001       2.47149
   543    H   15  dxy    Ryd( 3d)     0.00006       1.58702
   544    H   15  dxy    Ryd( 4d)     0.00000       4.43988
   545    H   15  dxz    Ryd( 3d)     0.00015       1.15687
   546    H   15  dxz    Ryd( 4d)     0.00000       4.19507
   547    H   15  dyz    Ryd( 3d)     0.00003       1.14254
   548    H   15  dyz    Ryd( 4d)     0.00000       3.82687
   549    H   15  dx2y2  Ryd( 3d)     0.00009       1.55698
   550    H   15  dx2y2  Ryd( 4d)     0.00001       4.50330
   551    H   15  dz2    Ryd( 3d)     0.00010       1.62461
   552    H   15  dz2    Ryd( 4d)     0.00000       4.01881

 WARNING:  1 low occupancy (<1.9990e) core orbital  found on  C    5

 WARNING:  Population inversion found on atom  C    1
           Population inversion found on atom  N    2
           Population inversion found on atom  C    3
           Population inversion found on atom  C    4
           Population inversion found on atom  C    5
           Population inversion found on atom  N    6
           Population inversion found on atom  C    7
           Population inversion found on atom  O    8
           Population inversion found on atom  O    9
           Population inversion found on atom  H   10
           Population inversion found on atom  H   11
           Population inversion found on atom  H   12
           Population inversion found on atom  H   13
           Population inversion found on atom  H   14
           Population inversion found on atom  H   15


 Summary of Natural Population Analysis:                  
                                                          
                                       Natural Population 
                Natural  -----------------------------------------------
    Atom  No    Charge         Core      Valence    Rydberg      Total
 -----------------------------------------------------------------------
      C    1   -0.38230      1.99943     4.37008    0.01279     6.38230
      N    2   -0.11928      1.99925     5.08450    0.03553     7.11928
      C    3   -0.06459      1.99906     4.04763    0.01791     6.06459
      C    4   -0.26255      1.99906     4.24606    0.01743     6.26255
      C    5   -0.07109      1.99884     4.03497    0.03729     6.07109
      N    6   -0.18779      1.99930     5.15627    0.03222     7.18779
      C    7    0.77968      1.99905     3.19113    0.03014     5.22032
      O    8   -0.59031      1.99979     6.56003    0.03049     8.59031
      O    9   -0.70695      1.99978     6.68302    0.02415     8.70695
      H   10    0.21323      0.00000     0.78466    0.00212     0.78677
      H   11    0.21914      0.00000     0.77845    0.00241     0.78086
      H   12    0.21970      0.00000     0.77787    0.00243     0.78030
      H   13    0.21639      0.00000     0.78023    0.00338     0.78361
      H   14    0.23251      0.00000     0.76390    0.00358     0.76749
      H   15    0.50421      0.00000     0.49206    0.00372     0.49579
 =======================================================================
   * Total *    0.00000     17.99357    47.75086    0.25557    66.00000

                                 Natural Population      
 --------------------------------------------------------
   Core                      17.99357 ( 99.9643% of  18)
   Valence                   47.75086 ( 99.4810% of  48)
   Natural Minimal Basis     65.74443 ( 99.6128% of  66)
   Natural Rydberg Basis      0.25557 (  0.3872% of  66)
 --------------------------------------------------------

    Atom  No          Natural Electron Configuration
 ----------------------------------------------------------------------------
      C    1      [core]2S( 1.10)2p( 3.27)4d( 0.01)
      N    2      [core]2S( 1.13)2p( 3.96)3d( 0.01)4p( 0.01)4f( 0.01)
      C    3      [core]2S( 0.91)2p( 3.14)5p( 0.01)
      C    4      [core]2S( 0.96)2p( 3.29)4p( 0.01)
      C    5      [core]2S( 0.85)2p( 3.19)3d( 0.01)5p( 0.01)4f( 0.01)
      N    6      [core]2S( 1.32)2p( 3.84)3p( 0.01)3d( 0.01)4d( 0.01)
      C    7      [core]2S( 0.78)2p( 2.41)4p( 0.01)
      O    8      [core]2S( 1.71)2p( 4.85)3d( 0.02)
      O    9      [core]2S( 1.68)2p( 5.01)3d( 0.02)
      H   10            1S( 0.78)
      H   11            1S( 0.78)
      H   12            1S( 0.78)
      H   13            1S( 0.78)
      H   14            1S( 0.76)
      H   15            1S( 0.49)


 NATURAL BOND ORBITAL ANALYSIS:

                       Occupancies       Lewis Structure    Low   High
           Occ.    -------------------  -----------------   occ   occ
  Cycle   Thresh.   Lewis   Non-Lewis     CR  BD  3C  LP    (L)   (NL)   Dev
 =============================================================================
   1(1)    1.90    63.07458   2.92542      9  18   0   6     7      5    0.49
   2(2)    1.90    63.07458   2.92542      9  18   0   6     7      5    0.49
   3(1)    1.80    64.09702   1.90298      9  18   0   6     1      3    0.49
   4(2)    1.80    64.09702   1.90298      9  18   0   6     1      3    0.49
   5(1)    1.70    64.09702   1.90298      9  18   0   6     1      3    0.49
   6(2)    1.70    64.39962   1.60038      9  18   0   6     1      3    0.33
   7(3)    1.70    64.39962   1.60038      9  18   0   6     1      3    0.33
   8(1)    1.60    64.39962   1.60038      9  18   0   6     1      3    0.33
   9(2)    1.60    64.11908   1.88092      9  18   0   6     1      3    0.49
  10(3)    1.60    64.39962   1.60038      9  18   0   6     1      3    0.33
  11(1)    1.50    63.32986   2.67014      9  18   0   6     1      5    0.73
  12(2)    1.50    63.32986   2.67014      9  18   0   6     1      5    0.73
  13(1)    1.60    64.39962   1.60038      9  18   0   6     1      3    0.33
 -----------------------------------------------------------------------------

 Structure accepted: RESONANCE keyword permits strongly delocalized structure

 WARNING:  1 low occupancy (<1.9990e) core orbital  found on  C    5

 --------------------------------------------------------
   Core                     17.99359 ( 99.964% of  18)
   Valence Lewis            46.40603 ( 96.679% of  48)
  ==================       ============================
   Total Lewis              64.39962 ( 97.575% of  66)
  -----------------------------------------------------
   Valence non-Lewis         1.46703 (  2.223% of  66)
   Rydberg non-Lewis         0.13335 (  0.202% of  66)
  ==================       ============================
   Total non-Lewis           1.60038 (  2.425% of  66)
 --------------------------------------------------------


       (Occupancy)   Bond orbital/ Coefficients/ Hybrids
 ---------------------------------------------------------------------------------
     1. (1.98756) BD ( 1) C   1 - N   2  
                ( 35.85%)   0.5988* C   1 s( 24.47%)p 3.08( 75.40%)d 0.00(  0.12%)
                                                  f 0.00(  0.01%)
                                            0.0001  0.4941 -0.0239  0.0027 -0.0006
                                           -0.8078 -0.0330  0.0056  0.0020  0.3166
                                            0.0065 -0.0037 -0.0003 -0.0003  0.0000
                                            0.0000  0.0000 -0.0212 -0.0050 -0.0014
                                            0.0000  0.0000  0.0000  0.0000  0.0000
                                            0.0000  0.0200  0.0063  0.0007 -0.0151
                                           -0.0054 -0.0004  0.0001  0.0001  0.0019
                                           -0.0058 -0.0034 -0.0009  0.0001  0.0001
                                           -0.0001  0.0000 -0.0012  0.0031  0.0012
                                           -0.0068
                ( 64.15%)   0.8009* N   2 s( 29.86%)p 2.35( 70.03%)d 0.00(  0.03%)
                                                  f 0.00(  0.08%)
                                           -0.0001  0.5464  0.0047 -0.0003  0.0006
                                            0.7577  0.0227 -0.0042 -0.0032 -0.3545
                                            0.0035  0.0015  0.0009 -0.0002  0.0000
                                            0.0000  0.0000 -0.0082 -0.0032  0.0012
                                            0.0000  0.0000  0.0000  0.0000  0.0000
                                            0.0000  0.0142  0.0013  0.0002 -0.0048
                                           -0.0022 -0.0002  0.0001  0.0000 -0.0202
                                           -0.0060  0.0066  0.0028  0.0000  0.0000
                                            0.0000  0.0000  0.0039  0.0013 -0.0156
                                           -0.0014
     2. (1.99111) BD ( 1) C   1 - H  10  
                ( 60.64%)   0.7787* C   1 s( 26.00%)p 2.84( 73.85%)d 0.01(  0.14%)
                                                  f 0.00(  0.01%)
                                           -0.0001  0.5099  0.0036  0.0005  0.0000
                                            0.5646  0.0060  0.0027 -0.0007  0.6475
                                           -0.0137 -0.0017  0.0004 -0.0135  0.0000
                                            0.0000  0.0000  0.0291 -0.0013 -0.0016
                                           -0.0006  0.0000  0.0000 -0.0009  0.0000
                                            0.0000 -0.0112 -0.0004 -0.0016 -0.0216
                                            0.0015  0.0000  0.0003  0.0000 -0.0030
                                            0.0019 -0.0061 -0.0016  0.0000  0.0001
                                           -0.0002  0.0000 -0.0017 -0.0017  0.0058
                                           -0.0008
                ( 39.36%)   0.6274* H  10 s( 99.90%)p 0.00(  0.08%)d 0.00(  0.02%)
                                            0.9995  0.0001  0.0002 -0.0001  0.0179
                                           -0.0084 -0.0004  0.0184 -0.0067  0.0015
                                           -0.0004  0.0002  0.0000 -0.0109  0.0017
                                            0.0003 -0.0001  0.0003  0.0000 -0.0005
                                            0.0016  0.0088 -0.0014
     3. (1.98861) BD ( 1) C   1 - H  11  
                ( 61.10%)   0.7816* C   1 s( 24.79%)p 3.03( 75.07%)d 0.01(  0.13%)
                                                  f 0.00(  0.01%)
                                           -0.0001  0.4978  0.0057 -0.0006  0.0002
                                            0.1161  0.0090  0.0015  0.0000 -0.4778
                                            0.0013 -0.0010  0.0002  0.7133 -0.0086
                                            0.0015  0.0011 -0.0021  0.0016 -0.0001
                                            0.0044 -0.0019 -0.0004 -0.0288  0.0006
[...]
 ! D23   D(4,5,7,8)           -179.9056         -DE/DX =    0.0001              !
 ! D24   D(4,5,7,9)              0.0989         -DE/DX =   -0.0001              !
 ! D25   D(6,5,7,8)              0.0093         -DE/DX =    0.0001              !
 ! D26   D(6,5,7,9)           -179.9862         -DE/DX =   -0.0001              !
 ! D27   D(5,7,9,15)           179.9878         -DE/DX =    0.0001              !
 ! D28   D(8,7,9,15)            -0.0079         -DE/DX =   -0.0001              !
 --------------------------------------------------------------------------------
 GradGradGradGradGradGradGradGradGradGradGradGradGradGradGradGradGradGrad


 ----------------------------------------------------------------------

 Electric dipole moment (input orientation):
 (Debye = 10**-18 statcoulomb cm , SI units = C m)
                  (au)            (Debye)         (10**-30 SI)
   Tot        0.172708D+01      0.438980D+01      0.146428D+02
   x          0.495379D-01      0.125913D+00      0.420000D+00
   y         -0.592530D-01     -0.150606D+00     -0.502367D+00
   z          0.172535D+01      0.438541D+01      0.146282D+02

 Dipole polarizability, Alpha (input orientation).
 (esu units = cm**3 , SI units = C**2 m**2 J**-1)
 Alpha(0;0):
               (au)            (10**-24 esu)      (10**-40 SI)
   iso        0.807605D+02      0.119675D+02      0.133156D+02
   aniso      0.486567D+02      0.721018D+01      0.802241D+01
   xx         0.834952D+02      0.123727D+02      0.137665D+02
   yx        -0.186626D+02     -0.276551D+01     -0.307704D+01
   yy         0.624738D+02      0.925766D+01      0.103005D+02
   zx         0.102109D+02      0.151310D+01      0.168355D+01
   zy        -0.668816D+01     -0.991083D+00     -0.110273D+01
   zz         0.963126D+02      0.142720D+02      0.158798D+02

 ----------------------------------------------------------------------

 Dipole orientation:
     6          1.94549990         -5.17376169          6.10465495
     7         -0.25761509         -3.89653953          5.10254276
     6         -2.15981615         -2.79794901          6.41664004
     6         -3.81818559         -1.84179772          4.66919552
     6         -2.72276578         -2.47587759          2.33155784
     7         -0.56331119         -3.72206360          2.62915629
     6         -3.67562794         -1.92696066         -0.22963203
     8         -2.68190402         -2.49983501         -2.17937645
     8         -5.88435732         -0.64957333         -0.12779889
     1          1.87120349         -5.09656382          8.15427794
     1          1.95155636         -7.13130660          5.48048183
     1          3.64685036         -4.23864707          5.43266502
     1         -2.16834101         -2.79150921          8.45018972
     1         -5.55307971         -0.83935745          4.99573076
     1         -6.39692315         -0.35302119         -1.85444174

 Electric dipole moment (dipole orientation):
 (Debye = 10**-18 statcoulomb cm , SI units = C m)
                  (au)            (Debye)         (10**-30 SI)
   Tot        0.172708D+01      0.438980D+01      0.146428D+02
   x          0.000000D+00      0.000000D+00      0.000000D+00
   y          0.000000D+00      0.000000D+00      0.000000D+00
   z          0.172708D+01      0.438980D+01      0.146428D+02

 Dipole polarizability, Alpha (dipole orientation).
 (esu units = cm**3 , SI units = C**2 m**2 J**-1)
 Alpha(0;0):
               (au)            (10**-24 esu)      (10**-40 SI)
   iso        0.807605D+02      0.119675D+02      0.133156D+02
   aniso      0.486567D+02      0.721018D+01      0.802241D+01
   xx         0.829020D+02      0.122848D+02      0.136687D+02
   yx        -0.181252D+02     -0.268588D+01     -0.298845D+01
   yy         0.620370D+02      0.919293D+01      0.102285D+02
   zx         0.104510D+02      0.154868D+01      0.172314D+01
   zy        -0.602918D+01     -0.893432D+00     -0.994077D+00
   zz         0.973425D+02      0.144247D+02      0.160496D+02

 ----------------------------------------------------------------------
 Unable to Open any file for archive entry.
 1\1\GINC-AE01\Freq\RM062X\Aug-CC-pVTZ\C5H6N2O2\DHUANG\04-Mar-2025\0\\#
 N Geom=AllCheck Guess=TCheck SCRF=Check GenChk RM062X/Aug-CC-pVTZ Freq
 \\4\\0,1\C,1.1204016237,-2.84654842,3.1037529369\N,-0.059834549,-2.153
 4500101,2.6306163407\C,-1.0457896403,-1.596796332,3.3741283909\C,-1.94
 92741131,-1.0598277841,2.492876041\C,-1.4054882605,-1.3524454563,1.228
 9504519\N,-0.2590319792,-2.0163507815,1.3308735467\C,-1.9482454508,-1.
 0158917625,-0.1005884612\O,-1.4523490546,-1.2832086683,-1.1568003401\O
 ,-3.1146952393,-0.3427496901,0.0099614678\H,1.1122319442,-2.8429515581
 ,4.1898109168\H,1.1136213515,-3.8704931341,2.7381538434\H,2.0103908464
 ,-2.3393552047,2.7396602235\H,-1.0194312363,-1.6303120289,4.44940633\H
 ,-2.8617452792,-0.5360518072,2.7100304947\H,-3.4119521837,-0.154699632
 ,-0.8896606728\\Version=ES64L-G16RevC.01\State=1-A\HF=-454.0891845\RMS
 D=3.165e-09\RMSF=1.179e-04\ZeroPoint=0.1151112\Thermal=0.1223628\ETot=
 -453.9668217\HTot=-453.9658775\GTot=-454.0064997\Dipole=0.0495379,-0.0
 59253,1.7253537\DipoleDeriv=0.4886788,-0.1768226,0.1386873,-0.1740016,
 0.294362,-0.0786219,0.1596288,-0.0929155,0.2319425,-0.3788907,0.176421
 2,-0.22452,0.1737301,-0.1850514,0.1314284,-0.3589853,0.2121959,-0.3400
 879,0.2024839,-0.1791459,0.0424763,-0.1767832,-0.0036129,-0.025358,-0.
 0565228,0.0310541,-0.0085945,-0.1422028,-0.0209834,-0.0547961,-0.02100
 91,-0.1686258,0.0310096,-0.0544292,0.0313444,-0.1320476,-0.1676313,0.1
 005312,-0.3845516,0.0979522,-0.0672878,0.2246474,-0.2647265,0.1551608,
 -0.1448342,-0.1995688,0.0169069,0.3357594,0.0170213,-0.16644,-0.195256
 7,0.3821689,-0.2218874,-0.1020513,1.4993742,-0.6713011,0.1452167,-0.67
 19069,0.7333039,-0.1122525,0.1721023,-0.127992,1.9716724,-0.6319356,0.
 1498317,0.1109707,0.1492676,-0.4551144,-0.0460094,0.1287957,-0.0569213
 ,-1.3776151,-1.1863894,0.4746175,-0.1134375,0.4755722,-0.6451135,0.067
 7492,-0.1391197,0.0827117,-0.4976313,0.0392729,0.0294123,0.0400598,0.0
 296589,0.0717988,-0.0233695,-0.0290041,0.0171713,-0.0633382,0.0036986,
 -0.0018142,-0.0571569,0.0659312,-0.0587218,0.010158,-0.0198291,-0.0480
 713,0.0546319,-0.0675627,0.0237913,-0.036255,-0.0442296,0.0169065,0.04
 39454,0.0321825,0.0401925,0.0558427,0.106498,0.0418781,-0.0338124,0.04
 15614,0.1537365,0.0222927,-0.0144268,0.0112248,0.0070235,0.0726939,0.0
 574137,0.0210252,0.0575329,0.1396162,-0.0112624,0.0156125,-0.0079316,0
 .1075601,0.361481,-0.0207366,0.070334,-0.0202974,0.3402435,-0.0391003,
 0.0465528,-0.0253363,0.2375272\Polar=83.4951733,-18.6625677,62.47381,1
 0.2108808,-6.6881571,96.3125586\Quadrupole=2.3051689,-1.4389575,-0.866
 2115,-3.4819751,6.5550107,-3.8344635\PG=C01 [X(C5H6N2O2)]\NImag=1\\0.5
 3418341,0.03166206,0.56898309,-0.03256625,0.01831246,0.61738386,-0.194
 79613,0.07868720,-0.02486749,0.68153407,0.07870996,-0.10642277,0.01548
 461,-0.30383184,0.33429654,-0.03175161,0.01951134,-0.11321526,0.029907
 37,-0.02645347,0.67340251,-0.01852876,0.00749626,0.00657629,-0.2140208
 0,0.08593033,0.08159751,0.49530998,0.00797487,-0.00943745,-0.00413955,
 0.08556930,-0.11197678,-0.04516899,-0.21128228,0.25355452,-0.00855058,
 0.00457886,0.01397143,0.09297668,-0.05174017,-0.17712439,0.04011376,-0
 .03639777,0.90614275,0.00063139,0.00192465,0.00527718,-0.06510991,0.04
 500161,0.02244165,-0.22026587,0.09003260,-0.13089164,0.71156646,0.0019
 2830,0.00303680,-0.00305322,0.04609238,-0.01286071,-0.01289714,0.08951
 812,-0.12139070,0.07833826,-0.33822716,0.32082317,0.00422498,-0.002258
 98,0.00125945,-0.03887085,0.02229036,0.01072955,-0.10135682,0.06130946
 ,-0.22763664,-0.02607018,0.00742156,0.57585524,0.00532141,-0.00071995,
 0.00373704,-0.05841550,0.04161797,-0.07172163,0.03008277,-0.01114580,0
 .01275902,-0.12625186,0.03256227,0.05419359,0.57132012,-0.00087702,0.0
 0442206,-0.00190671,0.04127474,-0.01253136,0.04298257,-0.00999778,0.01
 700198,-0.00610989,0.03203079,-0.08640764,-0.02799817,-0.24293742,0.29
 342056,0.00203164,-0.00099459,-0.00846005,-0.03724093,0.02308573,-0.07
 692450,-0.05611239,0.03363487,-0.06269403,0.08379666,-0.04512570,-0.26
 146660,0.05251810,-0.04072920,0.75658618,-0.00639411,0.00031469,-0.041
 09961,-0.10284311,0.01531637,-0.04277719,-0.01955131,0.02294015,0.0056
 3481,-0.03888882,0.03294082,0.06718787,-0.29711276,0.12804828,0.017134
 61,0.47923618,0.00008256,-0.00701749,0.02391577,0.01439329,-0.08682714
 ,0.02859871,0.02232282,0.00751494,-0.00125251,0.03400861,0.00115180,-0
 .03842702,0.12853001,-0.14907304,-0.00958550,-0.21265246,0.23436510,-0
 .01185085,0.00682345,-0.01795157,0.00082961,0.00363870,-0.30848638,0.0
 4156547,-0.02206034,-0.09590391,0.00430685,-0.00214278,-0.00126655,-0.
 01059824,0.00637718,-0.09229276,0.00399459,-0.00938377,0.52715272,-0.0
 0040168,0.00157139,-0.00142977,-0.00573082,0.00790682,0.00817966,0.004
 61039,0.00045536,0.00693160,0.00928393,-0.00659405,0.00563183,-0.10334
 432,0.01598884,-0.05243515,-0.01821488,0.00469515,-0.03304754,0.561517
 37,0.00163003,0.00134967,0.00089601,0.00788178,0.00367719,-0.00502097,
 0.00042082,0.00540489,-0.00384465,-0.00636181,0.00177264,-0.00293785,0
 .01578684,-0.08687472,0.03250728,0.00453960,-0.01400848,0.01915554,-0.
 19693015,0.32914967,-0.00361121,0.00209006,-0.00093665,0.00716818,-0.0
 0433987,0.02514460,0.00925504,-0.00517760,-0.00424833,-0.00821942,0.00
 507030,-0.02095734,-0.03830979,0.02425905,-0.20289494,-0.02378881,0.01
 377646,-0.01435206,-0.13867572,0.06631802,0.98373173,-0.00006399,-0.00
 014716,-0.00003967,0.00173010,-0.00133509,0.00164290,0.00032636,-0.000
 93265,-0.00204440,-0.00040637,0.00189529,-0.00197566,0.01769091,0.0018
 6188,0.00186477,-0.00151540,0.00158758,-0.00215509,-0.20945509,0.07048
 147,0.23496356,0.23411868,-0.00017547,-0.00020146,0.00000379,-0.001290
 48,0.00020717,-0.00078406,-0.00092238,-0.00083326,0.00120386,0.0019747
 5,0.00165267,0.00118194,0.00161880,0.02003297,0.00034752,0.00140996,0.
 00033796,0.00112726,0.07060877,-0.11863822,-0.12551713,-0.11045238,0.0
 9455327,0.00186718,-0.00107914,0.00078487,-0.00116256,0.00079665,-0.00
 989416,-0.00275811,0.00160905,-0.00246225,-0.00612860,0.00358442,0.000
 73303,0.01488036,-0.00713681,-0.06011659,0.00808494,-0.00477637,0.0076
 2113,0.22758541,-0.12128344,-0.64354666,-0.29983457,0.16098173,0.71319
 951,0.00093365,-0.00073532,-0.00000621,-0.00107897,0.00039759,-0.00560
 304,-0.00233838,0.00121755,-0.00094594,-0.00133051,0.00098407,0.001251
 78,-0.02662112,0.02237158,-0.00799891,0.00469612,-0.00143999,-0.001365
 85,-0.21867454,0.08832383,0.00841183,-0.04726199,0.04353315,0.05490682
 ,0.36812526,-0.00075636,0.00008433,-0.00000138,0.00038702,-0.00080118,
 0.00327109,0.00119824,-0.00095901,0.00053162,0.00103106,-0.00017546,-0
 .00067916,0.02282517,-0.00149450,0.00478258,-0.00147280,0.00297813,0.0
 0092050,0.08878957,-0.11706794,-0.00375813,0.04336925,0.00518412,-0.03
 120228,-0.19263056,0.15070102,0.00085835,-0.00049620,-0.00022448,-0.00
 391292,0.00227832,-0.00232066,0.00022918,-0.00014638,0.00077254,-0.001
 37455,0.00083834,-0.00206195,-0.03500810,0.02042367,0.00197043,-0.0000
 3237,0.00015017,-0.00515870,-0.01628191,0.01053945,-0.12854575,0.06341
 969,-0.03613523,-0.00078998,0.09536022,-0.06502957,0.59073610,-0.05099
 684,0.00120756,0.01432165,-0.00131968,-0.00054864,-0.03492949,0.000932
 28,-0.00035060,-0.00066064,0.00003916,-0.00019279,-0.00021447,-0.00029
 433,0.00061502,-0.00197940,-0.00464745,0.00293735,0.00048317,-0.000263
 12,0.00021282,0.00051505,0.00004924,-0.00002921,-0.00016681,-0.0001912
 8,0.00009627,-0.00022345,0.05510098,0.00126144,-0.04942416,-0.00813878
 ,-0.00075356,-0.00220715,0.02053888,-0.00036426,0.00050197,0.00036774,
 -0.00019167,-0.00016314,0.00010663,0.00055950,0.00033150,0.00118597,0.
 00312111,-0.00119923,-0.00021834,0.00020283,-0.00003164,-0.00030367,-0
 .00002871,0.00001359,0.00010043,0.00009821,-0.00008558,0.00013184,-0.0
 0574424,0.04864851,0.00164160,-0.00066076,-0.32712579,0.00121391,-0.00
 060585,-0.01265430,0.00143466,-0.00081972,0.00071978,-0.00038486,0.000
 23729,-0.00007595,0.00009344,-0.00002781,-0.00038166,-0.00230900,0.001
 27410,0.00106463,0.00007354,-0.00004991,0.00039250,-0.00004635,0.00002
 985,-0.00010782,-0.00018034,0.00010672,-0.00013041,-0.00227678,0.00097
 246,0.35358508,-0.04790135,-0.01442762,-0.00492633,-0.00942167,0.03561
 131,0.00978153,0.00139313,0.00153064,-0.00271762,-0.00164800,0.0001623
 3,-0.00110044,-0.00189770,0.00070881,0.00043922,0.00263484,-0.00122717
 ,0.00286935,0.00000695,-0.00038142,0.00070199,0.00006102,0.00001129,-0
 .00035106,-0.00013513,0.00012730,-0.00013724,-0.00057127,0.00045480,0.
 00092499,0.05652878,-0.00799306,-0.28998306,-0.08804729,0.00987658,-0.
 01503721,-0.00318719,-0.00244039,-0.00023490,0.00180410,0.00066311,-0.
 00020410,0.00135442,0.00188279,-0.00069733,-0.00010049,-0.00187766,0.0
 0145047,-0.00212457,-0.00006848,0.00015297,-0.00078770,-0.00007423,0.0
 0004643,0.00038450,0.00010176,-0.00008119,0.00015189,-0.00078357,0.003
 37663,0.00045324,0.00167486,0.31417434,-0.00095260,-0.09228559,-0.0834
 0745,-0.00371359,0.01439565,0.00362092,0.00176639,-0.00028979,-0.00084
 768,-0.00064780,0.00085606,-0.00098322,-0.00092676,0.00080466,0.000475
 23,0.00090741,-0.00059167,0.00201924,-0.00036038,-0.00030524,0.0003157
 7,0.00013973,-0.00000866,-0.00014112,0.00004623,0.00002550,-0.00005526
 ,-0.00105405,-0.03019067,-0.00803177,0.00499089,0.09607467,0.08219788,
 -0.22294625,-0.10606013,0.07402381,-0.03309902,-0.00359221,0.00781760,
 0.00050277,-0.00278263,-0.00305119,-0.00088643,0.00111143,-0.00161422,
 -0.00204051,0.00168260,0.00030552,0.00309739,-0.00165703,0.00320588,0.
 00028013,0.00007485,0.00100590,0.00008581,-0.00005093,-0.00049412,-0.0
 0017978,0.00006843,-0.00019367,0.00257473,0.00100048,0.00004771,0.0010
 6791,-0.00097725,0.00020020,0.25148293,-0.11271941,-0.11546195,0.04723
 730,0.02238096,0.00862096,-0.00700523,0.00109443,0.00055187,0.00157960
 ,0.00063103,-0.00094837,0.00025264,0.00057971,-0.00045074,-0.00037658,
 -0.00097840,0.00100805,-0.00142487,-0.00019630,-0.00015126,-0.00020949
 ,0.00001784,0.00002576,0.00011006,0.00008750,-0.00002082,0.00004354,0.
 00219263,0.00019737,-0.00101673,-0.02421657,-0.01306533,0.01189198,0.1
 1106120,0.11977352,0.07984295,0.04581293,-0.08291872,-0.01431711,-0.00
 374837,0.00358377,0.00112384,-0.00133831,-0.00091434,-0.00104680,0.000
 16255,-0.00097602,-0.00119524,0.00034753,0.00045474,0.00094600,-0.0004
 8553,0.00202522,0.00007878,0.00045072,0.00033577,0.00008157,-0.0001148
 7,-0.00014556,0.00000424,-0.00005124,-0.00005531,0.02583854,0.01564886
 ,-0.00792352,-0.01035045,-0.00605047,0.00473151,-0.08111967,-0.0511625
 8,0.08167760,0.00055508,-0.00165572,0.00084579,0.00285843,-0.00402544,
 0.02627734,-0.05234638,0.01358080,-0.01676499,0.00843299,-0.00334026,-
 0.01627858,-0.00233305,0.00438357,-0.00340382,-0.00203072,0.00509097,0
 .00296968,0.00132246,0.00000497,-0.00000063,-0.00017960,-0.00021068,-0
 .00083334,-0.00010472,-0.00000309,-0.00005251,-0.00036495,0.00042046,-
 0.00024430,0.00014366,-0.00003986,-0.00026282,-0.00006128,0.00011071,0
 .00000437,0.04473629,-0.00164371,-0.00136007,-0.00048909,-0.00354943,-
 0.00104274,-0.01500774,0.01343998,-0.03732943,0.01531006,-0.00368615,0
 .00412895,0.00951560,0.00433720,0.00260986,0.00207529,0.00512192,0.003
 94953,-0.00161804,-0.00000100,0.00133766,0.00001922,-0.00022391,-0.000
 45126,0.00047710,-0.00000090,-0.00011275,0.00002977,0.00042234,0.00013
 447,0.00012012,0.00023963,-0.00002636,-0.00017458,-0.00015880,0.000184
 31,0.00030486,-0.01303111,0.03006271,-0.00073548,0.00037665,-0.0001417
 8,-0.00374605,0.00230799,-0.01216491,-0.00731442,0.00986733,-0.3612080
 4,0.00384698,-0.00210570,-0.00450944,-0.00073531,0.00053660,-0.0013586
 4,0.00148883,-0.00075883,0.00088224,0.00054160,-0.00029623,0.00026292,
 -0.00016583,0.00009398,-0.00041496,-0.00022103,0.00012766,-0.00008688,
 0.00028512,-0.00016194,0.00058808,0.00006652,-0.00003871,0.00017436,0.
 00005952,-0.00002904,0.00018922,0.00689610,-0.01002611,0.37784997,0.00
 055663,0.00092436,0.00037108,0.00011981,0.00280721,-0.00133753,-0.0062
 4794,0.00312565,0.00713343,-0.27543126,0.14153445,0.05448621,-0.002705
 49,0.00054071,-0.00202842,0.00171464,0.00260223,0.00043271,-0.00100739
 ,-0.00047944,0.00035531,0.00014471,0.00002134,0.00010642,-0.00026126,0
 .00010368,-0.00087944,-0.00001308,-0.00005354,0.00000773,-0.00030836,0
 .00008876,-0.00014152,0.00010501,-0.00004158,0.00011904,-0.00067576,-0
 .00124736,-0.00029125,0.28385915,0.00095735,0.00163693,-0.00019570,0.0
 0284309,0.00326305,0.00091445,0.00351911,-0.00259081,-0.00432777,0.141
 54150,-0.11026868,-0.03082931,0.00016291,-0.00194332,0.00105269,0.0025
 2989,0.00476474,-0.00004196,-0.00050644,-0.00153022,-0.00025070,0.0000
 3608,0.00016563,-0.00006368,0.00010860,-0.00018030,0.00051393,-0.00005
 057,-0.00007867,-0.00000993,-0.00028115,0.00013275,-0.00021928,0.00032
 955,-0.00028924,0.00023917,-0.00126679,-0.00211171,0.00012061,-0.14978
 574,0.10904540,-0.00034418,0.00021425,0.00104295,-0.00432027,0.0026551
 3,-0.00427504,-0.01615925,0.00913700,0.01135857,0.05473257,-0.03096484
 ,-0.06883109,0.01948205,-0.01138926,0.00551650,0.00463954,-0.00248292,
 -0.00513870,0.00197479,-0.00118861,0.00092046,-0.00074043,0.00042564,0
 .00029300,-0.00121576,0.00070958,-0.00045683,0.00005488,-0.00003536,0.
 00006868,-0.00021078,0.00013541,-0.00007557,-0.00021975,0.00011444,-0.
 00007078,0.00083795,-0.00053097,-0.00007346,-0.05826182,0.03305815,0.0
 5969415,-0.00015245,-0.00004227,-0.00021752,-0.00040679,0.00003405,0.0
 0047491,0.00014176,0.00006705,0.00007772,0.00026510,-0.00037520,0.0005
 0498,-0.00339856,0.00430538,0.00310850,-0.00018060,0.00072610,-0.00163
 975,-0.01992940,0.01479580,-0.04977128,0.00467562,-0.00604652,0.004298
 05,-0.07557735,0.03686682,-0.10177130,-0.00003440,0.00001716,0.0000040
 5,0.00004718,-0.00003335,0.00000869,0.00001660,-0.00000374,-0.00001006
 ,0.00004755,-0.00001869,0.00002471,0.00015058,-0.00013740,-0.00024953,
 0.09433518,-0.00004154,-0.00020446,0.00012178,0.00003896,-0.00035787,-
 0.00029223,0.00006699,0.00022218,-0.00004133,-0.00037292,-0.00014721,-
 0.00030213,0.00434000,0.00165373,-0.00175988,0.00069854,0.00060466,0.0
 0097204,0.01407770,-0.00454221,0.02881118,-0.00605525,-0.00209538,-0.0
 0250221,0.03758294,-0.03796889,0.06670647,0.00001564,-0.00001447,-0.00
 000307,0.00001296,-0.00000411,0.00001694,-0.00004956,0.00002586,-0.000
 01524,-0.00001854,0.00002684,-0.00001426,-0.00014074,-0.00001556,0.000
 14235,-0.05015519,0.04281689,-0.00010394,0.00005527,-0.00006080,0.0000
 5601,-0.00004541,0.00057826,0.00003885,-0.00001927,0.00007453,0.000361
 96,-0.00021940,0.00018753,0.00083147,-0.00043340,0.00158668,-0.0000116
 3,0.00002892,-0.00021454,-0.00876672,0.00505989,0.00437799,0.00488977,
 -0.00283560,-0.00501241,-0.14244403,0.09024651,-0.45359287,0.00000668,
 -0.00000404,0.00001249,0.00001945,-0.00002182,0.00000717,0.00002648,-0
 .00000505,0.00000642,0.00000977,-0.00000550,0.00001133,-0.00007195,0.0
 0003933,0.00002715,0.14515784,-0.09184041,0.45201108\\-0.00005811,0.00
 002941,-0.00002202,0.00013438,-0.00008090,-0.00021959,-0.00031657,0.00
 017630,0.00000717,0.00031531,-0.00016411,-0.00005110,-0.00006340,0.000
 09437,0.00025194,-0.00001048,0.00003606,0.00010576,-0.00000234,-0.0002
 7258,-0.00026201,-0.00000869,0.00010721,0.00017534,-0.00002071,0.00009
 429,-0.00000532,-0.00001192,0.00000746,-0.00000965,-0.00000187,-0.0000
 1294,0.00001004,0.00000691,0.00000767,0.00000624,0.00003622,-0.0000245
 3,-0.00000280,-0.00000950,0.00000676,-0.00001549,0.00001079,-0.0000044
 8,0.00003148\\\@
 The archive entry for this job was punched.


 I WANT IT ALL - RICH, THIN, AND CHOCOLATE.
 Job cpu time:       0 days  9 hours 25 minutes 29.0 seconds.
 Elapsed time:       0 days  0 hours 28 minutes 16.6 seconds.
 File lengths (MBytes):  RWF=    335 Int=      0 D2E=      0 Chk=     25 Scr=      1
 Normal termination of Gaussian 16 at Tue Mar  4 18:06:19 2025.
