 Entering Gaussian System, Link 0=g16
 Initial command:
 /usr/local/gaussian16c01/g16/l1.exe "/scr/dhuang/Gau-351284.inp" -scrdir="/scr/dhuang/"
 Entering Link 1 = /usr/local/gaussian16c01/g16/l1.exe PID=    351287.
  
 Copyright (c) 1988-2019, Gaussian, Inc.  All Rights Reserved.
  
 This is part of the Gaussian(R) 16 program.  It is based on
 the Gaussian(R) 09 system (copyright 2009, Gaussian, Inc.),
 the Gaussian(R) 03 system (copyright 2003, Gaussian, Inc.),
 the Gaussian(R) 98 system (copyright 1998, Gaussian, Inc.),
 the Gaussian(R) 94 system (copyright 1995, Gaussian, Inc.),
 the Gaussian 92(TM) system (copyright 1992, Gaussian, Inc.),
 the Gaussian 90(TM) system (copyright 1990, Gaussian, Inc.),
 the Gaussian 88(TM) system (copyright 1988, Gaussian, Inc.),
 the Gaussian 86(TM) system (copyright 1986, Carnegie Mellon
 University), and the Gaussian 82(TM) system (copyright 1983,
 Carnegie Mellon University). Gaussian is a federally registered
 trademark of Gaussian, Inc.
  
 This software contains proprietary and confidential information,
 including trade secrets, belonging to Gaussian, Inc.
  
 This software is provided under written license and may be
 used, copied, transmitted, or stored only in accord with that
 written license.
  
 The following legend is applicable only to US Government
 contracts under FAR:
  
                    RESTRICTED RIGHTS LEGEND
  
 Use, reproduction and disclosure by the US Government is
 subject to restrictions as set forth in subparagraphs (a)
 and (c) of the Commercial Computer Software - Restricted
 Rights clause in FAR 52.227-19.
  
 Gaussian, Inc.
 340 Quinnipiac St., Bldg. 40, Wallingford CT 06492
  
  
 ---------------------------------------------------------------
 Warning -- This program may not be used in any manner that
 competes with the business of Gaussian, Inc. or will provide
 assistance to any competitor of Gaussian, Inc.  The licensee
 of this program is prohibited from giving any competitor of
 Gaussian, Inc. access to this program.  By using this program,
 the user acknowledges that Gaussian, Inc. is engaged in the
 business of creating and licensing software in the field of
 computational chemistry and represents and warrants to the
 licensee that it is not a competitor of Gaussian, Inc. and that
 it will not use this program in any manner prohibited above.
 ---------------------------------------------------------------
  

 Cite this work as:
 Gaussian 16, Revision C.01,
 M. J. Frisch, G. W. Trucks, H. B. Schlegel, G. E. Scuseria, 
 M. A. Robb, J. R. Cheeseman, G. Scalmani, V. Barone, 
 G. A. Petersson, H. Nakatsuji, X. Li, M. Caricato, A. V. Marenich, 
 J. Bloino, B. G. Janesko, R. Gomperts, B. Mennucci, H. P. Hratchian, 
 J. V. Ortiz, A. F. Izmaylov, J. L. Sonnenberg, D. Williams-Young, 
 F. Ding, F. Lipparini, F. Egidi, J. Goings, B. Peng, A. Petrone, 
 T. Henderson, D. Ranasinghe, V. G. Zakrzewski, J. Gao, N. Rega, 
 G. Zheng, W. Liang, M. Hada, M. Ehara, K. Toyota, R. Fukuda, 
 J. Hasegawa, M. Ishida, T. Nakajima, Y. Honda, O. Kitao, H. Nakai, 
 T. Vreven, K. Throssell, J. A. Montgomery, Jr., J. E. Peralta, 
 F. Ogliaro, M. J. Bearpark, J. J. Heyd, E. N. Brothers, K. N. Kudin, 
 V. N. Staroverov, T. A. Keith, R. Kobayashi, J. Normand, 
 K. Raghavachari, A. P. Rendell, J. C. Burant, S. S. Iyengar, 
 J. Tomasi, M. Cossi, J. M. Millam, M. Klene, C. Adamo, R. Cammi, 
 J. W. Ochterski, R. L. Martin, K. Morokuma, O. Farkas, 
 J. B. Foresman, and D. J. Fox, Gaussian, Inc., Wallingford CT, 2019.
 
 ******************************************
 Gaussian 16:  ES64L-G16RevC.01  3-Jul-2019
                 4-Mar-2025 
 ******************************************
 %nprocshared=20
 Will use up to   20 processors via shared memory.
 %mem=10000MW
 %chk=5.chk
 ------------------------------------
 # opt freq m062x/aug-cc-pvtz pop=nbo
 ------------------------------------
 1/18=20,19=15,26=3,38=1/1,3;
 2/9=110,12=2,17=6,18=5,40=1/2;
 3/5=16,6=1,7=10,11=2,25=1,30=1,71=1,74=-55/1,2,3;
 4//1;
 5/5=2,38=5/2;
 6/7=2,8=2,9=2,10=2,28=1,40=1/1,7;
 7//1,2,3,16;
 1/18=20,19=15,26=3/3(2);
 2/9=110/2;
 99//99;
 2/9=110/2;
 3/5=16,6=1,7=10,11=2,25=1,30=1,71=1,74=-55/1,2,3;
 4/5=5,16=3,69=1/1;
 5/5=2,38=5/2;
 7//1,2,3,16;
 1/18=20,19=15,26=3/3(-5);
 2/9=110/2;
 6/7=2,8=2,9=2,10=2,19=2,28=1,40=1/1,7;
 99/9=1/99;
 -
 5
 -
 Symbolic Z-matrix:
 Charge =  0 Multiplicity = 1
 C                     1.4134   -3.03673   3.00138 
 N                     0.17172  -2.43922   2.47748 
 C                    -0.69603  -1.98283   3.2805 
 C                    -1.68472  -1.51916   2.50352 
 C                    -2.93688  -0.88154   3.03125 
 C                    -1.27727  -1.763     1.24152 
 N                    -0.1389   -2.32488   1.28924 
 C                    -1.9553   -1.4656    0.0962 
 O                    -1.46835  -1.74274  -0.98535 
 O                    -3.1699   -0.8639    0.1158 
 H                     1.46196  -3.04483   4.11343 
 H                     1.50122  -4.0894    2.64806 
 H                     2.29239  -2.46593   2.62404 
 H                    -0.60719  -1.99047   4.37177 
 H                    -3.02746   0.16885   2.67345 
 H                    -3.83579  -1.4647    2.72884 
 H                    -2.93069  -0.84674   4.14397 
 H                    -3.49394  -0.73356  -0.78584 
 

 GradGradGradGradGradGradGradGradGradGradGradGradGradGradGradGradGradGrad
 Berny optimization.
 Initialization pass.
                           ----------------------------
                           !    Initial Parameters    !
                           ! (Angstroms and Degrees)  !
 --------------------------                            --------------------------
 ! Name  Definition              Value          Derivative Info.                !
 --------------------------------------------------------------------------------
 ! R1    R(1,2)                  1.4742         estimate D2E/DX2                !
 ! R2    R(1,11)                 1.1131         estimate D2E/DX2                !
 ! R3    R(1,12)                 1.1139         estimate D2E/DX2                !
 ! R4    R(1,13)                 1.1139         estimate D2E/DX2                !
 ! R5    R(2,3)                  1.2673         estimate D2E/DX2                !
 ! R6    R(2,7)                  1.2335         estimate D2E/DX2                !
 ! R7    R(3,4)                  1.3402         estimate D2E/DX2                !
 ! R8    R(3,14)                 1.0949         estimate D2E/DX2                !
 ! R9    R(4,5)                  1.501          estimate D2E/DX2                !
 ! R10   R(4,6)                  1.3484         estimate D2E/DX2                !
 ! R11   R(5,15)                 1.1133         estimate D2E/DX2                !
 ! R12   R(5,16)                 1.1134         estimate D2E/DX2                !
 ! R13   R(5,17)                 1.1133         estimate D2E/DX2                !
 ! R14   R(6,7)                  1.2704         estimate D2E/DX2                !
 ! R15   R(6,8)                  1.3638         estimate D2E/DX2                !
 ! R16   R(8,9)                  1.2181         estimate D2E/DX2                !
 ! R17   R(8,10)                 1.3556         estimate D2E/DX2                !
 ! R18   R(10,18)                0.9669         estimate D2E/DX2                !
 ! A1    A(2,1,11)             113.2488         estimate D2E/DX2                !
 ! A2    A(2,1,12)             109.678          estimate D2E/DX2                !
 ! A3    A(2,1,13)             109.6672         estimate D2E/DX2                !
 ! A4    A(11,1,12)            107.8536         estimate D2E/DX2                !
 ! A5    A(11,1,13)            107.9218         estimate D2E/DX2                !
 ! A6    A(12,1,13)            108.337          estimate D2E/DX2                !
 ! A7    A(1,2,3)              119.8346         estimate D2E/DX2                !
 ! A8    A(1,2,7)              126.3007         estimate D2E/DX2                !
 ! A9    A(3,2,7)              113.8648         estimate D2E/DX2                !
 ! A10   A(2,3,4)              105.2104         estimate D2E/DX2                !
 ! A11   A(2,3,14)             124.991          estimate D2E/DX2                !
 ! A12   A(4,3,14)             129.7986         estimate D2E/DX2                !
 ! A13   A(3,4,5)              123.9553         estimate D2E/DX2                !
 ! A14   A(3,4,6)              104.8992         estimate D2E/DX2                !
 ! A15   A(5,4,6)              131.1455         estimate D2E/DX2                !
 ! A16   A(4,5,15)             110.8341         estimate D2E/DX2                !
 ! A17   A(4,5,16)             110.827          estimate D2E/DX2                !
 ! A18   A(4,5,17)             111.1033         estimate D2E/DX2                !
 ! A19   A(15,5,16)            109.949          estimate D2E/DX2                !
 ! A20   A(15,5,17)            106.9878         estimate D2E/DX2                !
 ! A21   A(16,5,17)            106.998          estimate D2E/DX2                !
 ! A22   A(4,6,7)              108.3977         estimate D2E/DX2                !
 ! A23   A(4,6,8)              126.6082         estimate D2E/DX2                !
 ! A24   A(7,6,8)              124.9941         estimate D2E/DX2                !
 ! A25   A(2,7,6)              107.6279         estimate D2E/DX2                !
 ! A26   A(6,8,9)              119.8226         estimate D2E/DX2                !
 ! A27   A(6,8,10)             122.0121         estimate D2E/DX2                !
 ! A28   A(9,8,10)             118.1654         estimate D2E/DX2                !
 ! A29   A(8,10,18)            110.2805         estimate D2E/DX2                !
 ! D1    D(11,1,2,3)             1.0523         estimate D2E/DX2                !
 ! D2    D(11,1,2,7)          -178.9461         estimate D2E/DX2                !
 ! D3    D(12,1,2,3)           121.5838         estimate D2E/DX2                !
 ! D4    D(12,1,2,7)           -58.4145         estimate D2E/DX2                !
 ! D5    D(13,1,2,3)          -119.5588         estimate D2E/DX2                !
 ! D6    D(13,1,2,7)            60.4428         estimate D2E/DX2                !
 ! D7    D(1,2,3,4)           -179.9937         estimate D2E/DX2                !
 ! D8    D(1,2,3,14)             0.0068         estimate D2E/DX2                !
 ! D9    D(7,2,3,4)              0.0048         estimate D2E/DX2                !
 ! D10   D(7,2,3,14)          -179.9947         estimate D2E/DX2                !
 ! D11   D(1,2,7,6)            179.9874         estimate D2E/DX2                !
 ! D12   D(3,2,7,6)             -0.0111         estimate D2E/DX2                !
 ! D13   D(2,3,4,5)           -179.9978         estimate D2E/DX2                !
 ! D14   D(2,3,4,6)              0.003          estimate D2E/DX2                !
 ! D15   D(14,3,4,5)             0.0016         estimate D2E/DX2                !
 ! D16   D(14,3,4,6)          -179.9975         estimate D2E/DX2                !
 ! D17   D(3,4,5,15)           118.851          estimate D2E/DX2                !
 ! D18   D(3,4,5,16)          -118.7824         estimate D2E/DX2                !
 ! D19   D(3,4,5,17)             0.0383         estimate D2E/DX2                !
 ! D20   D(6,4,5,15)           -61.1501         estimate D2E/DX2                !
 ! D21   D(6,4,5,16)            61.2165         estimate D2E/DX2                !
 ! D22   D(6,4,5,17)          -179.9628         estimate D2E/DX2                !
 ! D23   D(3,4,6,7)             -0.0095         estimate D2E/DX2                !
 ! D24   D(3,4,6,8)            179.9926         estimate D2E/DX2                !
 ! D25   D(5,4,6,7)            179.9914         estimate D2E/DX2                !
 ! D26   D(5,4,6,8)             -0.0065         estimate D2E/DX2                !
 ! D27   D(4,6,7,2)              0.0125         estimate D2E/DX2                !
 ! D28   D(8,6,7,2)           -179.9896         estimate D2E/DX2                !
 ! D29   D(4,6,8,9)            179.9984         estimate D2E/DX2                !
 ! D30   D(4,6,8,10)            -0.0095         estimate D2E/DX2                !
 ! D31   D(7,6,8,9)              0.0009         estimate D2E/DX2                !
 ! D32   D(7,6,8,10)           179.9929         estimate D2E/DX2                !
 ! D33   D(6,8,10,18)          180.0            estimate D2E/DX2                !
 ! D34   D(9,8,10,18)           -0.0078         estimate D2E/DX2                !
 --------------------------------------------------------------------------------
 Trust Radius=3.00D-01 FncErr=1.00D-07 GrdErr=1.00D-06 EigMax=2.50D+02 EigMin=1.00D-04
 Number of steps in this run=     91 maximum allowed number of steps=    108.
 GradGradGradGradGradGradGradGradGradGradGradGradGradGradGradGradGradGrad

                          Input orientation:                          
 ---------------------------------------------------------------------
 Center     Atomic      Atomic             Coordinates (Angstroms)
 Number     Number       Type             X           Y           Z
 ---------------------------------------------------------------------
      1          6           0        1.413396   -3.036734    3.001384
      2          7           0        0.171724   -2.439222    2.477484
      3          6           0       -0.696030   -1.982826    3.280500
      4          6           0       -1.684719   -1.519157    2.503517
      5          6           0       -2.936876   -0.881542    3.031246
      6          6           0       -1.277269   -1.762997    1.241524
      7          7           0       -0.138897   -2.324879    1.289237
      8          6           0       -1.955300   -1.465600    0.096200
      9          8           0       -1.468346   -1.742739   -0.985352
     10          8           0       -3.169900   -0.863900    0.115800
     11          1           0        1.461957   -3.044829    4.113428
     12          1           0        1.501219   -4.089404    2.648061
     13          1           0        2.292395   -2.465931    2.624040
     14          1           0       -0.607187   -1.990472    4.371769
     15          1           0       -3.027462    0.168849    2.673452
     16          1           0       -3.835793   -1.464701    2.728842
     17          1           0       -2.930686   -0.846744    4.143973
     18          1           0       -3.493944   -0.733561   -0.785839
 ---------------------------------------------------------------------
                    Distance matrix (angstroms):
                    1          2          3          4          5
     1  C    0.000000
     2  N    1.474191   0.000000
     3  C    2.374512   1.267331   0.000000
     4  C    3.485574   2.072095   1.340222   0.000000
     5  C    4.854957   3.520853   2.509251   1.500982   0.000000
     6  C    3.458206   2.021004   2.131568   1.348369   2.595065
     7  N    2.418221   1.233487   2.095835   2.124437   3.598125
     8  C    4.717697   3.338066   3.463098   2.423068   3.149462
     9  O    5.086543   3.894374   4.341843   3.502716   4.362488
    10  O    5.835615   4.384705   4.169814   2.887268   2.924797
    11  H    1.113133   2.169740   2.545295   3.849812   5.020025
    12  H    1.113850   2.125971   3.108947   4.096005   5.489434
    13  H    1.113932   2.125897   3.097582   4.090029   5.479176
    14  H    2.656196   2.096758   1.094907   2.207619   2.907607
    15  H    5.486758   4.132218   3.230136   2.163608   1.113348
    16  H    5.486306   4.131956   3.229688   2.163528   1.113362
    17  H    4.997260   3.864985   2.651405   2.166948   1.113288
    18  H    6.612839   5.195736   5.091570   3.835403   3.860357
                    6          7          8          9         10
     6  C    0.000000
     7  N    1.270385   0.000000
     8  C    1.363796   2.336882   0.000000
     9  O    2.235151   2.698162   1.218066   0.000000
    10  O    2.378589   3.563481   1.355611   2.209113   0.000000
    11  H    4.170645   3.325223   5.505427   6.023260   6.495504
    12  H    3.887223   2.765850   5.034269   5.246602   6.215752
    13  H    3.892038   2.777188   5.043168   5.262498   6.220485
    14  H    3.209235   3.135782   4.513690   5.431548   5.094108
    15  H    2.974159   4.059377   3.234684   4.412693   2.761964
    16  H    2.974414   4.059484   3.235283   4.413315   2.762673
    17  H    3.463743   4.257756   4.209373   5.408440   4.035306
    18  H    3.175467   4.253772   1.918671   2.271848   0.966926
                   11         12         13         14         15
    11  H    0.000000
    12  H    1.799994   0.000000
    13  H    1.800840   1.806156   0.000000
    14  H    2.336613   3.438322   3.418799   0.000000
    15  H    5.705798   6.216294   5.936782   3.661240   0.000000
    16  H    5.699125   5.948049   6.210324   3.660539   1.823445
    17  H    4.912007   5.691605   5.675608   2.599741   1.789755
    18  H    7.342051   6.928564   6.936144   6.042691   3.605363
                   16         17         18
    16  H    0.000000
    17  H    1.789884   0.000000
    18  H    3.606162   4.963176   0.000000
 Stoichiometry    C6H8N2O2
 Framework group  C1[X(C6H8N2O2)]
 Deg. of freedom    48
 Full point group                 C1      NOp   1
 Largest Abelian subgroup         C1      NOp   1
 Largest concise Abelian subgroup C1      NOp   1
                         Standard orientation:                         
 ---------------------------------------------------------------------
 Center     Atomic      Atomic             Coordinates (Angstroms)
 Number     Number       Type             X           Y           Z
 ---------------------------------------------------------------------
      1          6           0       -3.117196   -0.709332   -0.000170
      2          7           0       -1.710041   -0.269838    0.000032
      3          6           0       -1.435966    0.967502   -0.000016
      4          6           0       -0.097255    1.031122    0.000061
      5          6           0        0.681067    2.314540    0.000087
      6          6           0        0.310901   -0.253988    0.000083
      7          7           0       -0.716631   -1.001021    0.000224
      8          6           0        1.600487   -0.697731    0.000015
      9          8           0        1.829447   -1.894085    0.000075
     10          8           0        2.653998    0.155378   -0.000278
     11          1           0       -3.841449    0.135749   -0.019136
     12          1           0       -3.311300   -1.345544   -0.893602
     13          1           0       -3.320932   -1.314964    0.912270
     14          1           0       -2.175948    1.774501   -0.000094
     15          1           0        1.315667    2.392775    0.911518
     16          1           0        1.314800    2.393192   -0.911927
     17          1           0        0.000843    3.195849    0.000730
     18          1           0        3.485241   -0.338565   -0.000281
 ---------------------------------------------------------------------
 Rotational constants (GHZ):           2.4639358           1.1127817           0.7743730
 Standard basis: Aug-CC-pVTZ (5D, 7F)
 There are   750 symmetry adapted cartesian basis functions of A   symmetry.
 There are   644 symmetry adapted basis functions of A   symmetry.
   644 basis functions,   936 primitive gaussians,   750 cartesian basis functions
    37 alpha electrons       37 beta electrons
       nuclear repulsion energy       539.4238898728 Hartrees.
 NAtoms=   18 NActive=   18 NUniq=   18 SFac= 1.00D+00 NAtFMM=   60 NAOKFM=F Big=F
 Integral buffers will be    131072 words long.
 Raffenetti 2 integral format.
 Two-electron integral symmetry is turned on.
 One-electron integrals computed using PRISM.
 NBasis=   644 RedAO= T EigKep=  1.03D-06  NBF=   644
 NBsUse=   644 1.00D-06 EigRej= -1.00D+00 NBFU=   644
 ExpMin= 2.53D-02 ExpMax= 1.53D+04 ExpMxC= 5.22D+02 IAcc=3 IRadAn=         5 AccDes= 0.00D+00
 Harris functional with IExCor= 1009 and IRadAn=       5 diagonalized for initial guess.
 HarFok:  IExCor= 1009 AccDes= 0.00D+00 IRadAn=         5 IDoV= 1 UseB2=F ITyADJ=14
 ICtDFT=  3500011 ScaDFX=  1.000000  1.000000  1.000000  1.000000
 FoFCou: FMM=F IPFlag=           0 FMFlag=      100000 FMFlg1=           0
         NFxFlg=           0 DoJE=T BraDBF=F KetDBF=T FulRan=T
         wScrn=  0.000000 ICntrl=       500 IOpCl=  0 I1Cent=   200000004 NGrid=           0
         NMat0=    1 NMatS0=      1 NMatT0=    0 NMatD0=    1 NMtDS0=    0 NMtDT0=    0
 Petite list used in FoFCou.
 Requested convergence on RMS density matrix=1.00D-08 within 128 cycles.
 Requested convergence on MAX density matrix=1.00D-06.
 Requested convergence on             energy=1.00D-06.
 No special actions if energy rises.
 SCF Done:  E(RM062X) =  -493.348211690     A.U. after   14 cycles
            NFock= 14  Conv=0.36D-08     -V/T= 2.0031

 **********************************************************************

            Population analysis using the SCF Density.

 **********************************************************************

 Orbital symmetries:
       Occupied  (A) (A) (A) (A) (A) (A) (A) (A) (A) (A) (A) (A)
                 (A) (A) (A) (A) (A) (A) (A) (A) (A) (A) (A) (A)
                 (A) (A) (A) (A) (A) (A) (A) (A) (A) (A) (A) (A)
                 (A)
       Virtual   (A) (A) (A) (A) (A) (A) (A) (A) (A) (A) (A) (A)
                 (A) (A) (A) (A) (A) (A) (A) (A) (A) (A) (A) (A)
                 (A) (A) (A) (A) (A) (A) (A) (A) (A) (A) (A) (A)
                 (A) (A) (A) (A) (A) (A) (A) (A) (A) (A) (A) (A)
                 (A) (A) (A) (A) (A) (A) (A) (A) (A) (A) (A) (A)
                 (A) (A) (A) (A) (A) (A) (A) (A) (A) (A) (A) (A)
                 (A) (A) (A) (A) (A) (A) (A) (A) (A) (A) (A) (A)
                 (A) (A) (A) (A) (A) (A) (A) (A) (A) (A) (A) (A)
                 (A) (A) (A) (A) (A) (A) (A) (A) (A) (A) (A) (A)
                 (A) (A) (A) (A) (A) (A) (A) (A) (A) (A) (A) (A)
                 (A) (A) (A) (A) (A) (A) (A) (A) (A) (A) (A) (A)
                 (A) (A) (A) (A) (A) (A) (A) (A) (A) (A) (A) (A)
                 (A) (A) (A) (A) (A) (A) (A) (A) (A) (A) (A) (A)
                 (A) (A) (A) (A) (A) (A) (A) (A) (A) (A) (A) (A)
                 (A) (A) (A) (A) (A) (A) (A) (A) (A) (A) (A) (A)
                 (A) (A) (A) (A) (A) (A) (A) (A) (A) (A) (A) (A)
                 (A) (A) (A) (A) (A) (A) (A) (A) (A) (A) (A) (A)
                 (A) (A) (A) (A) (A) (A) (A) (A) (A) (A) (A) (A)
                 (A) (A) (A) (A) (A) (A) (A) (A) (A) (A) (A) (A)
                 (A) (A) (A) (A) (A) (A) (A) (A) (A) (A) (A) (A)
                 (A) (A) (A) (A) (A) (A) (A) (A) (A) (A) (A) (A)
                 (A) (A) (A) (A) (A) (A) (A) (A) (A) (A) (A) (A)
                 (A) (A) (A) (A) (A) (A) (A) (A) (A) (A) (A) (A)
                 (A) (A) (A) (A) (A) (A) (A) (A) (A) (A) (A) (A)
                 (A) (A) (A) (A) (A) (A) (A) (A) (A) (A) (A) (A)
                 (A) (A) (A) (A) (A) (A) (A) (A) (A) (A) (A) (A)
                 (A) (A) (A) (A) (A) (A) (A) (A) (A) (A) (A) (A)
                 (A) (A) (A) (A) (A) (A) (A) (A) (A) (A) (A) (A)
                 (A) (A) (A) (A) (A) (A) (A) (A) (A) (A) (A) (A)
                 (A) (A) (A) (A) (A) (A) (A) (A) (A) (A) (A) (A)
                 (A) (A) (A) (A) (A) (A) (A) (A) (A) (A) (A) (A)
                 (A) (A) (A) (A) (A) (A) (A) (A) (A) (A) (A) (A)
                 (A) (A) (A) (A) (A) (A) (A) (A) (A) (A) (A) (A)
                 (A) (A) (A) (A) (A) (A) (A) (A) (A) (A) (A) (A)
                 (A) (A) (A) (A) (A) (A) (A) (A) (A) (A) (A) (A)
                 (A) (A) (A) (A) (A) (A) (A) (A) (A) (A) (A) (A)
                 (A) (A) (A) (A) (A) (A) (A) (A) (A) (A) (A) (A)
                 (A) (A) (A) (A) (A) (A) (A) (A) (A) (A) (A) (A)
                 (A) (A) (A) (A) (A) (A) (A) (A) (A) (A) (A) (A)
                 (A) (A) (A) (A) (A) (A) (A) (A) (A) (A) (A) (A)
                 (A) (A) (A) (A) (A) (A) (A) (A) (A) (A) (A) (A)
                 (A) (A) (A) (A) (A) (A) (A) (A) (A) (A) (A) (A)
                 (A) (A) (A) (A) (A) (A) (A) (A) (A) (A) (A) (A)
                 (A) (A) (A) (A) (A) (A) (A) (A) (A) (A) (A) (A)
                 (A) (A) (A) (A) (A) (A) (A) (A) (A) (A) (A) (A)
                 (A) (A) (A) (A) (A) (A) (A) (A) (A) (A) (A) (A)
                 (A) (A) (A) (A) (A) (A) (A) (A) (A) (A) (A) (A)
                 (A) (A) (A) (A) (A) (A) (A) (A) (A) (A) (A) (A)
                 (A) (A) (A) (A) (A) (A) (A) (A) (A) (A) (A) (A)
                 (A) (A) (A) (A) (A) (A) (A) (A) (A) (A) (A) (A)
                 (A) (A) (A) (A) (A) (A) (A)
 The electronic state is 1-A.
 Alpha  occ. eigenvalues --  -19.66440 -19.59319 -14.85130 -14.76835 -10.66228
 Alpha  occ. eigenvalues --  -10.60638 -10.56234 -10.55067 -10.54111 -10.53576
 Alpha  occ. eigenvalues --   -1.25850  -1.22556  -1.12073  -0.98718  -0.93259
 Alpha  occ. eigenvalues --   -0.85199  -0.81174  -0.74870  -0.70031  -0.64999
 Alpha  occ. eigenvalues --   -0.62979  -0.60691  -0.56678  -0.55944  -0.53325
 Alpha  occ. eigenvalues --   -0.51748  -0.49476  -0.49184  -0.47737  -0.47153
 Alpha  occ. eigenvalues --   -0.46324  -0.42742  -0.39109  -0.36417  -0.34261
 Alpha  occ. eigenvalues --   -0.32877  -0.31246
 Alpha virt. eigenvalues --   -0.01388  -0.00120   0.00235   0.00615   0.01140
 Alpha virt. eigenvalues --    0.01727   0.02415   0.02771   0.03353   0.04490
 Alpha virt. eigenvalues --    0.05135   0.05648   0.05968   0.06635   0.07430
 Alpha virt. eigenvalues --    0.07987   0.08298   0.08332   0.08570   0.08656
 Alpha virt. eigenvalues --    0.09066   0.09447   0.09504   0.10567   0.10838
 Alpha virt. eigenvalues --    0.11404   0.11866   0.12113   0.12393   0.13399
 Alpha virt. eigenvalues --    0.13427   0.14681   0.14783   0.15251   0.15921
 Alpha virt. eigenvalues --    0.17068   0.17314   0.17613   0.17894   0.18222
 Alpha virt. eigenvalues --    0.18532   0.19500   0.19743   0.20064   0.20577
 Alpha virt. eigenvalues --    0.21436   0.21461   0.22571   0.22606   0.23377
 Alpha virt. eigenvalues --    0.24233   0.24352   0.24722   0.25073   0.25303
 Alpha virt. eigenvalues --    0.26677   0.26727   0.26874   0.27737   0.27767
 Alpha virt. eigenvalues --    0.28180   0.28741   0.29661   0.29993   0.30020
 Alpha virt. eigenvalues --    0.31280   0.31676   0.32067   0.32247   0.32855
 Alpha virt. eigenvalues --    0.32910   0.33310   0.33895   0.34101   0.34211
 Alpha virt. eigenvalues --    0.34894   0.35666   0.35847   0.36663   0.36772
 Alpha virt. eigenvalues --    0.37129   0.37285   0.38188   0.38581   0.38626
 Alpha virt. eigenvalues --    0.39067   0.39307   0.40053   0.40063   0.40713
 Alpha virt. eigenvalues --    0.41411   0.41568   0.42523   0.42646   0.43171
 Alpha virt. eigenvalues --    0.43582   0.44259   0.44948   0.45868   0.46290
 Alpha virt. eigenvalues --    0.46771   0.47823   0.48487   0.48592   0.49242
 Alpha virt. eigenvalues --    0.49680   0.51372   0.52288   0.52366   0.54203
 Alpha virt. eigenvalues --    0.54303   0.55140   0.56148   0.56378   0.56653
 Alpha virt. eigenvalues --    0.56864   0.57193   0.57912   0.60001   0.60652
 Alpha virt. eigenvalues --    0.61599   0.61650   0.62031   0.62357   0.62890
 Alpha virt. eigenvalues --    0.63341   0.65029   0.66277   0.67234   0.67558
 Alpha virt. eigenvalues --    0.67889   0.69402   0.70367   0.70503   0.71149
 Alpha virt. eigenvalues --    0.71474   0.72711   0.73846   0.74041   0.74373
 Alpha virt. eigenvalues --    0.74590   0.75178   0.75575   0.75873   0.76140
 Alpha virt. eigenvalues --    0.76782   0.76994   0.77985   0.78769   0.79201
 Alpha virt. eigenvalues --    0.79298   0.79469   0.79783   0.80876   0.81984
 Alpha virt. eigenvalues --    0.82177   0.82583   0.82632   0.83034   0.84273
 Alpha virt. eigenvalues --    0.84932   0.85154   0.86359   0.86889   0.87204
 Alpha virt. eigenvalues --    0.88554   0.89241   0.89352   0.90325   0.90899
 Alpha virt. eigenvalues --    0.91047   0.91430   0.91882   0.92588   0.94060
 Alpha virt. eigenvalues --    0.94194   0.96454   0.96508   0.96678   0.97361
 Alpha virt. eigenvalues --    0.98823   0.99521   0.99629   1.00253   1.00553
 Alpha virt. eigenvalues --    1.01172   1.01950   1.03065   1.03194   1.03565
 Alpha virt. eigenvalues --    1.04534   1.04924   1.05809   1.07040   1.07219
 Alpha virt. eigenvalues --    1.08270   1.08630   1.09224   1.09792   1.11163
 Alpha virt. eigenvalues --    1.11218   1.11676   1.13229   1.13606   1.14425
 Alpha virt. eigenvalues --    1.15571   1.15719   1.16919   1.17420   1.17992
 Alpha virt. eigenvalues --    1.18836   1.20070   1.20176   1.20465   1.21255
 Alpha virt. eigenvalues --    1.22564   1.23889   1.24286   1.26135   1.26574
 Alpha virt. eigenvalues --    1.27245   1.28481   1.28864   1.29310   1.30004
 Alpha virt. eigenvalues --    1.30198   1.31486   1.32412   1.32532   1.33652
 Alpha virt. eigenvalues --    1.34125   1.35019   1.35857   1.36213   1.37722
 Alpha virt. eigenvalues --    1.38417   1.39698   1.41303   1.41513   1.43527
 Alpha virt. eigenvalues --    1.43757   1.44249   1.44484   1.45647   1.45910
 Alpha virt. eigenvalues --    1.47331   1.47926   1.48593   1.49816   1.50221
 Alpha virt. eigenvalues --    1.50738   1.51241   1.52546   1.52921   1.53243
 Alpha virt. eigenvalues --    1.54205   1.55355   1.57184   1.57524   1.58526
 Alpha virt. eigenvalues --    1.58678   1.59320   1.59448   1.60319   1.60683
 Alpha virt. eigenvalues --    1.63700   1.64203   1.64376   1.65983   1.66340
 Alpha virt. eigenvalues --    1.67558   1.68801   1.68971   1.70684   1.72274
 Alpha virt. eigenvalues --    1.72803   1.73532   1.73920   1.75081   1.76488
 Alpha virt. eigenvalues --    1.77222   1.77926   1.79429   1.79898   1.80879
 Alpha virt. eigenvalues --    1.82276   1.83698   1.85361   1.85917   1.86414
 Alpha virt. eigenvalues --    1.87350   1.88097   1.88528   1.88908   1.90000
 Alpha virt. eigenvalues --    1.91561   1.93676   1.95156   1.95905   1.96955
 Alpha virt. eigenvalues --    1.97602   1.99411   1.99929   2.01887   2.02067
 Alpha virt. eigenvalues --    2.04235   2.04435   2.05257   2.05661   2.07397
 Alpha virt. eigenvalues --    2.08162   2.09182   2.10123   2.12164   2.13145
 Alpha virt. eigenvalues --    2.13895   2.15367   2.15726   2.18819   2.19948
 Alpha virt. eigenvalues --    2.20155   2.21500   2.22304   2.24051   2.24766
 Alpha virt. eigenvalues --    2.25881   2.27213   2.28560   2.28596   2.29921
 Alpha virt. eigenvalues --    2.31724   2.32178   2.35070   2.37449   2.37899
 Alpha virt. eigenvalues --    2.38757   2.39175   2.42141   2.42959   2.43135
 Alpha virt. eigenvalues --    2.44675   2.46015   2.46509   2.47862   2.51944
 Alpha virt. eigenvalues --    2.52184   2.55122   2.57470   2.60960   2.61878
 Alpha virt. eigenvalues --    2.66863   2.68333   2.69285   2.69478   2.69760
 Alpha virt. eigenvalues --    2.72318   2.72945   2.78107   2.78269   2.81607
 Alpha virt. eigenvalues --    2.85232   2.86215   2.87383   2.88079   2.90045
 Alpha virt. eigenvalues --    2.90825   2.93326   2.96810   3.01113   3.01440
 Alpha virt. eigenvalues --    3.03648   3.05823   3.07963   3.08330   3.09124
 Alpha virt. eigenvalues --    3.09980   3.14529   3.15223   3.15673   3.17882
 Alpha virt. eigenvalues --    3.18480   3.18695   3.19587   3.21857   3.23701
 Alpha virt. eigenvalues --    3.24985   3.26408   3.26761   3.27062   3.30370
 Alpha virt. eigenvalues --    3.30881   3.32124   3.35627   3.36383   3.37309
 Alpha virt. eigenvalues --    3.37901   3.38488   3.38562   3.40057   3.40182
 Alpha virt. eigenvalues --    3.42350   3.43498   3.43790   3.44760   3.45356
 Alpha virt. eigenvalues --    3.47232   3.48521   3.50501   3.51246   3.52857
 Alpha virt. eigenvalues --    3.52988   3.54051   3.54935   3.56143   3.58138
 Alpha virt. eigenvalues --    3.59710   3.60828   3.62120   3.62299   3.65624
 Alpha virt. eigenvalues --    3.66184   3.66238   3.68634   3.69101   3.69496
 Alpha virt. eigenvalues --    3.70561   3.73599   3.74289   3.75046   3.75826
 Alpha virt. eigenvalues --    3.77474   3.79718   3.79812   3.80771   3.80882
 Alpha virt. eigenvalues --    3.83203   3.83620   3.87202   3.87704   3.89106
 Alpha virt. eigenvalues --    3.90004   3.90267   3.90648   3.92785   3.93641
 Alpha virt. eigenvalues --    3.94095   3.94238   3.96599   3.99128   4.00844
 Alpha virt. eigenvalues --    4.01660   4.04881   4.05954   4.06650   4.07433
 Alpha virt. eigenvalues --    4.11349   4.11962   4.14412   4.15991   4.16843
 Alpha virt. eigenvalues --    4.17215   4.18042   4.19812   4.21867   4.23727
 Alpha virt. eigenvalues --    4.24813   4.25511   4.28143   4.29613   4.30730
 Alpha virt. eigenvalues --    4.31469   4.33496   4.34248   4.36987   4.38401
 Alpha virt. eigenvalues --    4.39394   4.40917   4.41763   4.42238   4.45226
 Alpha virt. eigenvalues --    4.48010   4.49769   4.50595   4.50757   4.52936
 Alpha virt. eigenvalues --    4.53332   4.54913   4.56277   4.57298   4.58952
 Alpha virt. eigenvalues --    4.60942   4.61080   4.63056   4.64463   4.67164
 Alpha virt. eigenvalues --    4.68004   4.71565   4.71858   4.72780   4.74798
 Alpha virt. eigenvalues --    4.75515   4.76197   4.78535   4.79413   4.82012
 Alpha virt. eigenvalues --    4.82297   4.85220   4.86415   4.91479   4.93099
 Alpha virt. eigenvalues --    4.93189   4.96854   5.01021   5.03707   5.04842
 Alpha virt. eigenvalues --    5.05230   5.08897   5.09655   5.10630   5.11455
 Alpha virt. eigenvalues --    5.13415   5.15763   5.16626   5.18614   5.20107
 Alpha virt. eigenvalues --    5.25793   5.27154   5.27980   5.30228   5.32953
 Alpha virt. eigenvalues --    5.35217   5.37094   5.37515   5.42862   5.44191
 Alpha virt. eigenvalues --    5.47012   5.50910   5.51177   5.52729   5.56509
 Alpha virt. eigenvalues --    5.59113   5.65678   5.66205   5.67066   5.68152
 Alpha virt. eigenvalues --    5.70908   5.71158   5.78377   5.80637   5.80827
 Alpha virt. eigenvalues --    5.84351   5.84614   5.91436   5.98316   6.00201
 Alpha virt. eigenvalues --    6.02803   6.08559   6.09706   6.17242   6.23098
 Alpha virt. eigenvalues --    6.24605   6.25743   6.27326   6.27676   6.32381
 Alpha virt. eigenvalues --    6.32938   6.35945   6.40050   6.42074   6.44553
 Alpha virt. eigenvalues --    6.45018   6.52843   6.57638   6.59016   6.64536
 Alpha virt. eigenvalues --    6.67162   6.72603   6.73005   6.80425   6.80676
 Alpha virt. eigenvalues --    6.83806   6.85207   6.87434   6.91127   6.92062
 Alpha virt. eigenvalues --    6.97970   7.10882   7.12961   7.17020   7.22647
 Alpha virt. eigenvalues --    7.34742   7.39937   7.55827   7.66523   7.77987
 Alpha virt. eigenvalues --    7.89443   8.07612  15.19031  15.93826  16.98004
 Alpha virt. eigenvalues --   17.93732  18.17343  19.01864  19.13735  20.28003
 Alpha virt. eigenvalues --   20.94422  21.58826
          Condensed to atoms (all electrons):
               1          2          3          4          5          6
     1  C    5.884782   0.497619  -0.306281  -0.053589  -0.003545   0.032585
     2  N    0.497619   9.888944   1.587096  -0.898748  -0.032207  -0.326221
     3  C   -0.306281   1.587096   9.771318  -1.854340  -0.258663  -0.278838
     4  C   -0.053589  -0.898748  -1.854340   8.369825   0.079976  -1.121724
     5  C   -0.003545  -0.032207  -0.258663   0.079976   6.311257  -0.383526
     6  C    0.032585  -0.326221  -0.278838  -1.121724  -0.383526   9.105268
     7  N   -0.214107  -4.429957  -1.763833   0.617882   0.083639  -0.327665
     8  C    0.025442   0.058995   0.115358  -0.239781  -0.217745  -1.164404
     9  O   -0.003050  -0.047974  -0.023482   0.025453   0.013704   0.251189
    10  O    0.000806   0.004093   0.026057  -0.074612   0.013474  -0.082830
    11  H    0.362096   0.087137   0.070956  -0.031188   0.000461  -0.015552
    12  H    0.371609  -0.086079  -0.011381   0.001266  -0.001051   0.006577
    13  H    0.371657  -0.079855  -0.009611   0.001532  -0.001095   0.006339
    14  H   -0.068041  -0.079061   0.285208  -0.064411  -0.007871  -0.141391
    15  H   -0.000289   0.019572   0.025081  -0.140071   0.447969  -0.043954
    16  H   -0.000201   0.019132   0.024834  -0.141264   0.450192  -0.045739
    17  H    0.000797  -0.013531  -0.063394  -0.028984   0.450261   0.068095
    18  H    0.000326   0.000768   0.001708  -0.000575  -0.014188  -0.061230
               7          8          9         10         11         12
     1  C   -0.214107   0.025442  -0.003050   0.000806   0.362096   0.371609
     2  N   -4.429957   0.058995  -0.047974   0.004093   0.087137  -0.086079
     3  C   -1.763833   0.115358  -0.023482   0.026057   0.070956  -0.011381
     4  C    0.617882  -0.239781   0.025453  -0.074612  -0.031188   0.001266
     5  C    0.083639  -0.217745   0.013704   0.013474   0.000461  -0.001051
     6  C   -0.327665  -1.164404   0.251189  -0.082830  -0.015552   0.006577
     7  N   14.398801   0.065757  -0.114076   0.011593  -0.094218   0.057751
     8  C    0.065757   6.912163  -0.296393   0.091994  -0.002929   0.003461
     9  O   -0.114076  -0.296393   9.252952  -0.094548  -0.000321   0.000380
    10  O    0.011593   0.091994  -0.094548   8.493569   0.000202  -0.000051
    11  H   -0.094218  -0.002929  -0.000321   0.000202   0.371883   0.003378
    12  H    0.057751   0.003461   0.000380  -0.000051   0.003378   0.324416
    13  H    0.048200   0.003186   0.000364  -0.000057   0.004461   0.017523
    14  H   -0.104132   0.002138   0.000441  -0.001737  -0.020543   0.000730
    15  H   -0.015692  -0.002507   0.002734  -0.000616   0.000055  -0.000271
    16  H   -0.014658  -0.002194   0.002679  -0.000753   0.000113   0.000228
    17  H    0.017130   0.000461  -0.000731  -0.002490  -0.000131  -0.000143
    18  H    0.007079   0.113688  -0.071775   0.137463   0.000005  -0.000008
              13         14         15         16         17         18
     1  C    0.371657  -0.068041  -0.000289  -0.000201   0.000797   0.000326
     2  N   -0.079855  -0.079061   0.019572   0.019132  -0.013531   0.000768
     3  C   -0.009611   0.285208   0.025081   0.024834  -0.063394   0.001708
     4  C    0.001532  -0.064411  -0.140071  -0.141264  -0.028984  -0.000575
     5  C   -0.001095  -0.007871   0.447969   0.450192   0.450261  -0.014188
     6  C    0.006339  -0.141391  -0.043954  -0.045739   0.068095  -0.061230
     7  N    0.048200  -0.104132  -0.015692  -0.014658   0.017130   0.007079
     8  C    0.003186   0.002138  -0.002507  -0.002194   0.000461   0.113688
     9  O    0.000364   0.000441   0.002734   0.002679  -0.000731  -0.071775
    10  O   -0.000057  -0.001737  -0.000616  -0.000753  -0.002490   0.137463
    11  H    0.004461  -0.020543   0.000055   0.000113  -0.000131   0.000005
    12  H    0.017523   0.000730  -0.000271   0.000228  -0.000143  -0.000008
    13  H    0.323666   0.001048   0.000229  -0.000288  -0.000139  -0.000010
    14  H    0.001048   0.563894  -0.002147  -0.002286  -0.018521   0.000169
    15  H    0.000229  -0.002147   0.527776  -0.003789  -0.064017  -0.002639
    16  H   -0.000288  -0.002286  -0.003789   0.528259  -0.064313  -0.002598
    17  H   -0.000139  -0.018521  -0.064017  -0.064313   0.670493   0.000017
    18  H   -0.000010   0.000169  -0.002639  -0.002598   0.000017   0.615246
 Mulliken charges:
               1
     1  C   -0.898616
     2  N    0.830275
     3  C   -1.337791
     4  C    1.553353
     5  C   -0.931042
     6  C    0.523022
     7  N   -1.229494
     8  C    0.533310
     9  O   -0.897546
    10  O   -0.521557
    11  H    0.264136
    12  H    0.311667
    13  H    0.312850
    14  H    0.656514
    15  H    0.252579
    16  H    0.252645
    17  H    0.049141
    18  H    0.276554
 Sum of Mulliken charges =   0.00000
 Mulliken charges with hydrogens summed into heavy atoms:
               1
     1  C   -0.009962
     2  N    0.830275
     3  C   -0.681277
     4  C    1.553353
     5  C   -0.376677
     6  C    0.523022
     7  N   -1.229494
     8  C    0.533310
     9  O   -0.897546
    10  O   -0.245004
 Electronic spatial extent (au):  <R**2>=           1452.6284
 Charge=              0.0000 electrons
 Dipole moment (field-independent basis, Debye):
    X=             -3.4368    Y=              3.4120    Z=             -0.0021  Tot=              4.8429
 Quadrupole moment (field-independent basis, Debye-Ang):
   XX=            -40.9873   YY=            -65.6587   ZZ=            -58.4406
   XY=              2.9329   XZ=              0.0104   YZ=              0.0040
 Traceless Quadrupole moment (field-independent basis, Debye-Ang):
   XX=             14.0415   YY=            -10.6298   ZZ=             -3.4117
   XY=              2.9329   XZ=              0.0104   YZ=              0.0040
 Octapole moment (field-independent basis, Debye-Ang**2):
  XXX=              0.3815  YYY=             17.9058  ZZZ=              0.0375  XYY=            -14.4674
  XXY=             -5.1090  XXZ=             -0.0563  XZZ=              4.0563  YZZ=             -4.5818
  YYZ=             -0.0419  XYZ=              0.0042
 Hexadecapole moment (field-independent basis, Debye-Ang**3):
 XXXX=           -905.4925 YYYY=           -645.7044 ZZZZ=            -72.3603 XXXY=             -7.6335
 XXXZ=              0.2591 YYYX=             14.3724 YYYZ=              0.1231 ZZZX=             -0.1422
 ZZZY=             -0.0355 XXYY=           -311.8636 XXZZ=           -209.3501 YYZZ=           -114.0253
 XXYZ=             -0.0446 YYXZ=              0.1293 ZZXY=              4.8922
 N-N= 5.394238898728D+02 E-N=-2.231592359982D+03  KE= 4.918152345211D+02
 ******************************Gaussian NBO Version 3.1******************************
             N A T U R A L   A T O M I C   O R B I T A L   A N D
          N A T U R A L   B O N D   O R B I T A L   A N A L Y S I S
 ******************************Gaussian NBO Version 3.1******************************
       /RESON  / : Allow strongly delocalized NBO set

 Analyzing the SCF density

 Job title: 5                                                               

 Storage needed:   1246904 in NPA,   1661246 in NBO (********** available)
 GSVD:  LWork=       13336 too small for GESVD, short by      785450 words or      785450 for optimal perf.


 NATURAL POPULATIONS:  Natural atomic orbital occupancies 
                                                          
   NAO  Atom  No  lang   Type(AO)    Occupancy      Energy
 ----------------------------------------------------------
     1    C    1  S      Cor( 1S)     1.99943     -10.47922
     2    C    1  S      Val( 2S)     1.10044      -0.34444
     3    C    1  S      Ryd( 3S)     0.00061       1.11503
     4    C    1  S      Ryd( 4S)     0.00007       2.99533
     5    C    1  S      Ryd( 5S)     0.00001       3.27814
     6    C    1  px     Val( 2p)     0.86212      -0.10352
     7    C    1  px     Ryd( 4p)     0.00159       1.18774
     8    C    1  px     Ryd( 5p)     0.00009       1.67735
     9    C    1  px     Ryd( 3p)     0.00001       1.05311
    10    C    1  py     Val( 2p)     1.18537      -0.15988
    11    C    1  py     Ryd( 4p)     0.00214       1.14497
    12    C    1  py     Ryd( 5p)     0.00009       1.95351
    13    C    1  py     Ryd( 3p)     0.00001       1.07723
    14    C    1  pz     Val( 2p)     1.22243      -0.16639
    15    C    1  pz     Ryd( 4p)     0.00066       1.08289
    16    C    1  pz     Ryd( 5p)     0.00006       1.83542
    17    C    1  pz     Ryd( 3p)     0.00001       0.88501
    18    C    1  dxy    Ryd( 4d)     0.00126       1.84658
    19    C    1  dxy    Ryd( 5d)     0.00008       3.59144
    20    C    1  dxy    Ryd( 3d)     0.00003       1.49274
    21    C    1  dxz    Ryd( 4d)     0.00056       1.52877
    22    C    1  dxz    Ryd( 5d)     0.00004       3.14340
    23    C    1  dxz    Ryd( 3d)     0.00002       1.05754
    24    C    1  dyz    Ryd( 4d)     0.00218       1.63263
    25    C    1  dyz    Ryd( 5d)     0.00003       3.42361
    26    C    1  dyz    Ryd( 3d)     0.00001       1.34773
    27    C    1  dx2y2  Ryd( 4d)     0.00087       1.99607
    28    C    1  dx2y2  Ryd( 5d)     0.00005       3.56215
    29    C    1  dx2y2  Ryd( 3d)     0.00001       1.16505
    30    C    1  dz2    Ryd( 4d)     0.00179       1.83272
    31    C    1  dz2    Ryd( 5d)     0.00005       3.51434
    32    C    1  dz2    Ryd( 3d)     0.00001       1.40827
    33    C    1  f(0)   Ryd( 5f)     0.00001       3.86694
    34    C    1  f(0)   Ryd( 4f)     0.00003       2.08404
    35    C    1  f(C1)  Ryd( 5f)     0.00003       4.02439
    36    C    1  f(C1)  Ryd( 4f)     0.00004       3.19341
    37    C    1  f(S1)  Ryd( 5f)     0.00019       4.11349
    38    C    1  f(S1)  Ryd( 4f)     0.00003       3.16094
    39    C    1  f(C2)  Ryd( 5f)     0.00001       3.91884
    40    C    1  f(C2)  Ryd( 4f)     0.00004       2.41803
    41    C    1  f(S2)  Ryd( 5f)     0.00002       3.92478
    42    C    1  f(S2)  Ryd( 4f)     0.00002       2.25200
    43    C    1  f(C3)  Ryd( 5f)     0.00006       4.18322
    44    C    1  f(C3)  Ryd( 4f)     0.00003       2.54105
    45    C    1  f(S3)  Ryd( 5f)     0.00005       4.18274
    46    C    1  f(S3)  Ryd( 4f)     0.00006       2.43537
 
    47    N    2  S      Cor( 1S)     1.99924     -14.65130
    48    N    2  S      Val( 2S)     1.12173      -0.53366
    49    N    2  S      Ryd( 3S)     0.00269       1.63840
    50    N    2  S      Ryd( 5S)     0.00010       6.65705
    51    N    2  S      Ryd( 4S)     0.00002       5.30831
    52    N    2  px     Val( 2p)     1.23555      -0.28872
    53    N    2  px     Ryd( 4p)     0.00330       2.29033
    54    N    2  px     Ryd( 5p)     0.00013       5.17694
    55    N    2  px     Ryd( 3p)     0.00003       1.51335
    56    N    2  py     Val( 2p)     1.26622      -0.30061
    57    N    2  py     Ryd( 4p)     0.00589       2.04591
    58    N    2  py     Ryd( 5p)     0.00016       4.08830
    59    N    2  py     Ryd( 3p)     0.00007       1.18709
    60    N    2  pz     Val( 2p)     1.45750      -0.32217
    61    N    2  pz     Ryd( 4p)     0.00392       0.90949
    62    N    2  pz     Ryd( 5p)     0.00004       3.23399
    63    N    2  pz     Ryd( 3p)     0.00004       0.67598
    64    N    2  dxy    Ryd( 3d)     0.00067       3.61470
    65    N    2  dxy    Ryd( 5d)     0.00055       4.79137
    66    N    2  dxy    Ryd( 4d)     0.00011       4.28787
    67    N    2  dxz    Ryd( 3d)     0.00082       1.96548
    68    N    2  dxz    Ryd( 5d)     0.00018       3.58448
    69    N    2  dxz    Ryd( 4d)     0.00007       3.06845
    70    N    2  dyz    Ryd( 3d)     0.00191       1.74794
    71    N    2  dyz    Ryd( 5d)     0.00003       3.45600
    72    N    2  dyz    Ryd( 4d)     0.00001       3.10038
    73    N    2  dx2y2  Ryd( 4d)     0.00374       4.16649
    74    N    2  dx2y2  Ryd( 5d)     0.00022       4.50726
    75    N    2  dx2y2  Ryd( 3d)     0.00014       3.77654
    76    N    2  dz2    Ryd( 3d)     0.00181       2.16942
    77    N    2  dz2    Ryd( 4d)     0.00034       3.94842
    78    N    2  dz2    Ryd( 5d)     0.00009       4.86480
    79    N    2  f(0)   Ryd( 4f)     0.00135       1.70120
    80    N    2  f(0)   Ryd( 5f)     0.00013       4.87388
    81    N    2  f(C1)  Ryd( 4f)     0.00151       2.32449
    82    N    2  f(C1)  Ryd( 5f)     0.00011       4.93557
    83    N    2  f(S1)  Ryd( 4f)     0.00099       2.07330
    84    N    2  f(S1)  Ryd( 5f)     0.00012       4.84766
    85    N    2  f(C2)  Ryd( 4f)     0.00068       1.73331
    86    N    2  f(C2)  Ryd( 5f)     0.00007       4.93077
    87    N    2  f(S2)  Ryd( 4f)     0.00024       1.66205
    88    N    2  f(S2)  Ryd( 5f)     0.00005       4.98114
    89    N    2  f(C3)  Ryd( 4f)     0.00137       2.36562
    90    N    2  f(C3)  Ryd( 5f)     0.00019       5.51729
    91    N    2  f(S3)  Ryd( 4f)     0.00051       2.48853
    92    N    2  f(S3)  Ryd( 5f)     0.00015       5.50610
 
    93    C    3  S      Cor( 1S)     1.99894     -10.39736
    94    C    3  S      Val( 2S)     0.90152      -0.13492
    95    C    3  S      Ryd( 4S)     0.00105       2.06946
    96    C    3  S      Ryd( 5S)     0.00008       2.96748
    97    C    3  S      Ryd( 3S)     0.00002       1.73052
    98    C    3  px     Val( 2p)     1.11403      -0.10193
    99    C    3  px     Ryd( 5p)     0.00339       1.82896
   100    C    3  px     Ryd( 3p)     0.00007       1.21289
   101    C    3  px     Ryd( 4p)     0.00004       1.60440
   102    C    3  py     Val( 2p)     0.96109      -0.04623
   103    C    3  py     Ryd( 4p)     0.00365       1.81899
   104    C    3  py     Ryd( 3p)     0.00011       1.04206
   105    C    3  py     Ryd( 5p)     0.00007       1.82403
   106    C    3  pz     Val( 2p)     1.07228      -0.14011
   107    C    3  pz     Ryd( 4p)     0.00203       1.07220
   108    C    3  pz     Ryd( 3p)     0.00006       0.92829
   109    C    3  pz     Ryd( 5p)     0.00006       1.12823
   110    C    3  dxy    Ryd( 3d)     0.00068       2.72827
   111    C    3  dxy    Ryd( 4d)     0.00012       3.02506
   112    C    3  dxy    Ryd( 5d)     0.00006       3.83766
   113    C    3  dxz    Ryd( 3d)     0.00061       1.94755
   114    C    3  dxz    Ryd( 5d)     0.00019       2.40327
   115    C    3  dxz    Ryd( 4d)     0.00003       2.33744
   116    C    3  dyz    Ryd( 3d)     0.00050       1.92523
   117    C    3  dyz    Ryd( 4d)     0.00028       2.43016
   118    C    3  dyz    Ryd( 5d)     0.00004       2.47066
   119    C    3  dx2y2  Ryd( 3d)     0.00077       3.44052
   120    C    3  dx2y2  Ryd( 4d)     0.00049       3.48072
   121    C    3  dx2y2  Ryd( 5d)     0.00004       3.49527
   122    C    3  dz2    Ryd( 3d)     0.00066       2.65995
   123    C    3  dz2    Ryd( 4d)     0.00022       3.11895
   124    C    3  dz2    Ryd( 5d)     0.00005       4.51597
   125    C    3  f(0)   Ryd( 5f)     0.00015       3.47505
   126    C    3  f(0)   Ryd( 4f)     0.00004       2.21771
   127    C    3  f(C1)  Ryd( 5f)     0.00024       3.81327
   128    C    3  f(C1)  Ryd( 4f)     0.00005       3.43435
   129    C    3  f(S1)  Ryd( 5f)     0.00014       3.84422
   130    C    3  f(S1)  Ryd( 4f)     0.00004       3.42408
   131    C    3  f(C2)  Ryd( 5f)     0.00001       3.56575
   132    C    3  f(C2)  Ryd( 4f)     0.00001       2.30884
   133    C    3  f(S2)  Ryd( 5f)     0.00001       3.63545
   134    C    3  f(S2)  Ryd( 4f)     0.00003       2.57348
   135    C    3  f(C3)  Ryd( 4f)     0.00009       4.40012
   136    C    3  f(C3)  Ryd( 5f)     0.00009       5.04251
   137    C    3  f(S3)  Ryd( 4f)     0.00009       4.35953
   138    C    3  f(S3)  Ryd( 5f)     0.00005       4.77087
 
   139    C    4  S      Cor( 1S)     1.99899     -10.37002
   140    C    4  S      Val( 2S)     0.88689      -0.13563
   141    C    4  S      Ryd( 3S)     0.00137       1.82779
   142    C    4  S      Ryd( 4S)     0.00006       1.84316
   143    C    4  S      Ryd( 5S)     0.00002       4.29432
   144    C    4  px     Val( 2p)     1.04982      -0.06215
   145    C    4  px     Ryd( 4p)     0.00298       1.93234
   146    C    4  px     Ryd( 5p)     0.00010       2.68715
   147    C    4  px     Ryd( 3p)     0.00004       0.73821
   148    C    4  py     Val( 2p)     1.05678      -0.05147
   149    C    4  py     Ryd( 4p)     0.00372       2.32655
   150    C    4  py     Ryd( 5p)     0.00012       2.59791
   151    C    4  py     Ryd( 3p)     0.00005       0.71809
   152    C    4  pz     Val( 2p)     1.04920      -0.11235
   153    C    4  pz     Ryd( 4p)     0.00226       1.01825
   154    C    4  pz     Ryd( 5p)     0.00018       1.93307
   155    C    4  pz     Ryd( 3p)     0.00002       0.42162
   156    C    4  dxy    Ryd( 3d)     0.00092       2.71525
   157    C    4  dxy    Ryd( 4d)     0.00026       3.69646
   158    C    4  dxy    Ryd( 5d)     0.00007       3.72937
   159    C    4  dxz    Ryd( 3d)     0.00130       1.53044
   160    C    4  dxz    Ryd( 5d)     0.00005       3.01041
   161    C    4  dxz    Ryd( 4d)     0.00001       2.28062
   162    C    4  dyz    Ryd( 3d)     0.00110       1.59964
   163    C    4  dyz    Ryd( 5d)     0.00011       3.04524
   164    C    4  dyz    Ryd( 4d)     0.00005       2.14278
   165    C    4  dx2y2  Ryd( 3d)     0.00119       3.53887
   166    C    4  dx2y2  Ryd( 5d)     0.00060       3.91767
   167    C    4  dx2y2  Ryd( 4d)     0.00004       3.91515
   168    C    4  dz2    Ryd( 3d)     0.00095       2.00561
   169    C    4  dz2    Ryd( 4d)     0.00018       3.58362
   170    C    4  dz2    Ryd( 5d)     0.00006       4.44934
   171    C    4  f(0)   Ryd( 4f)     0.00042       1.51673
   172    C    4  f(0)   Ryd( 5f)     0.00018       3.57972
   173    C    4  f(C1)  Ryd( 4f)     0.00092       1.75598
   174    C    4  f(C1)  Ryd( 5f)     0.00015       3.67616
   175    C    4  f(S1)  Ryd( 4f)     0.00100       1.91568
   176    C    4  f(S1)  Ryd( 5f)     0.00020       3.69883
   177    C    4  f(C2)  Ryd( 4f)     0.00090       1.42976
   178    C    4  f(C2)  Ryd( 5f)     0.00005       3.65931
   179    C    4  f(S2)  Ryd( 4f)     0.00051       1.44752
   180    C    4  f(S2)  Ryd( 5f)     0.00002       3.66820
   181    C    4  f(C3)  Ryd( 4f)     0.00081       2.75073
   182    C    4  f(C3)  Ryd( 5f)     0.00011       4.28401
   183    C    4  f(S3)  Ryd( 4f)     0.00181       2.60225
   184    C    4  f(S3)  Ryd( 5f)     0.00013       4.47508
 
   185    C    5  S      Cor( 1S)     1.99948     -10.39929
   186    C    5  S      Val( 2S)     1.09925      -0.29759
   187    C    5  S      Ryd( 3S)     0.00090       1.30445
   188    C    5  S      Ryd( 4S)     0.00003       3.08509
   189    C    5  S      Ryd( 5S)     0.00003       4.73436
   190    C    5  px     Val( 2p)     1.17801      -0.11001
   191    C    5  px     Ryd( 3p)     0.00162       1.32975
   192    C    5  px     Ryd( 5p)     0.00007       1.83074
   193    C    5  px     Ryd( 4p)     0.00003       1.35947
   194    C    5  py     Val( 2p)     1.09826      -0.09831
   195    C    5  py     Ryd( 4p)     0.00088       1.31922
   196    C    5  py     Ryd( 5p)     0.00006       1.90863
   197    C    5  py     Ryd( 3p)     0.00001       1.31379
   198    C    5  pz     Val( 2p)     1.21980      -0.11806
   199    C    5  pz     Ryd( 4p)     0.00045       1.23073
   200    C    5  pz     Ryd( 5p)     0.00002       1.69838
   201    C    5  pz     Ryd( 3p)     0.00002       1.02102
   202    C    5  dxy    Ryd( 4d)     0.00199       1.94171
   203    C    5  dxy    Ryd( 5d)     0.00007       3.69839
   204    C    5  dxy    Ryd( 3d)     0.00002       1.25729
   205    C    5  dxz    Ryd( 4d)     0.00213       1.67284
   206    C    5  dxz    Ryd( 5d)     0.00002       3.63869
   207    C    5  dxz    Ryd( 3d)     0.00004       1.27622
   208    C    5  dyz    Ryd( 4d)     0.00023       1.52803
   209    C    5  dyz    Ryd( 5d)     0.00001       3.22612
   210    C    5  dyz    Ryd( 3d)     0.00002       1.13898
   211    C    5  dx2y2  Ryd( 4d)     0.00049       1.92416
   212    C    5  dx2y2  Ryd( 5d)     0.00004       3.42591
   213    C    5  dx2y2  Ryd( 3d)     0.00003       1.19025
   214    C    5  dz2    Ryd( 4d)     0.00197       1.83025
   215    C    5  dz2    Ryd( 5d)     0.00006       3.68866
   216    C    5  dz2    Ryd( 3d)     0.00003       1.44236
   217    C    5  f(0)   Ryd( 5f)     0.00000       3.86554
   218    C    5  f(0)   Ryd( 4f)     0.00002       2.08802
   219    C    5  f(C1)  Ryd( 5f)     0.00017       4.23547
   220    C    5  f(C1)  Ryd( 4f)     0.00002       3.29113
   221    C    5  f(S1)  Ryd( 5f)     0.00003       3.86100
   222    C    5  f(S1)  Ryd( 4f)     0.00003       3.66970
   223    C    5  f(C2)  Ryd( 5f)     0.00001       3.80920
   224    C    5  f(C2)  Ryd( 4f)     0.00002       2.58865
   225    C    5  f(S2)  Ryd( 5f)     0.00002       3.88964
   226    C    5  f(S2)  Ryd( 4f)     0.00003       2.11681
   227    C    5  f(C3)  Ryd( 5f)     0.00008       4.00700
   228    C    5  f(C3)  Ryd( 4f)     0.00004       3.26036
   229    C    5  f(S3)  Ryd( 5f)     0.00002       4.01939
   230    C    5  f(S3)  Ryd( 4f)     0.00005       2.49126
 
   231    C    6  S      Cor( 1S)     1.99873     -10.37925
   232    C    6  S      Val( 2S)     0.84230      -0.05893
   233    C    6  S      Ryd( 4S)     0.00194       2.07362
   234    C    6  S      Ryd( 5S)     0.00009       2.47554
   235    C    6  S      Ryd( 3S)     0.00003       1.64654
   236    C    6  px     Val( 2p)     1.04572      -0.07972
   237    C    6  px     Ryd( 5p)     0.00450       2.51237
   238    C    6  px     Ryd( 4p)     0.00010       2.29562
   239    C    6  px     Ryd( 3p)     0.00007       1.28782
   240    C    6  py     Val( 2p)     1.04653      -0.07285
   241    C    6  py     Ryd( 5p)     0.00762       2.02507
   242    C    6  py     Ryd( 4p)     0.00010       1.75278
   243    C    6  py     Ryd( 3p)     0.00005       1.30289
   244    C    6  pz     Val( 2p)     1.10886      -0.12722
   245    C    6  pz     Ryd( 4p)     0.00201       1.15348
   246    C    6  pz     Ryd( 5p)     0.00007       1.36799
   247    C    6  pz     Ryd( 3p)     0.00004       0.72073
   248    C    6  dxy    Ryd( 3d)     0.00149       2.37910
   249    C    6  dxy    Ryd( 4d)     0.00091       4.15374
   250    C    6  dxy    Ryd( 5d)     0.00008       5.26776
   251    C    6  dxz    Ryd( 3d)     0.00025       1.39614
   252    C    6  dxz    Ryd( 5d)     0.00031       3.11649
   253    C    6  dxz    Ryd( 4d)     0.00004       2.61048
   254    C    6  dyz    Ryd( 3d)     0.00112       1.17956
   255    C    6  dyz    Ryd( 5d)     0.00008       3.03097
   256    C    6  dyz    Ryd( 4d)     0.00004       2.54626
   257    C    6  dx2y2  Ryd( 3d)     0.00301       2.46001
   258    C    6  dx2y2  Ryd( 4d)     0.00045       3.81173
   259    C    6  dx2y2  Ryd( 5d)     0.00006       4.96643
   260    C    6  dz2    Ryd( 3d)     0.00083       1.63007
   261    C    6  dz2    Ryd( 4d)     0.00025       4.07893
   262    C    6  dz2    Ryd( 5d)     0.00004       4.12657
   263    C    6  f(0)   Ryd( 4f)     0.00034       1.55591
   264    C    6  f(0)   Ryd( 5f)     0.00029       3.52628
   265    C    6  f(C1)  Ryd( 4f)     0.00115       1.96100
   266    C    6  f(C1)  Ryd( 5f)     0.00034       3.80026
   267    C    6  f(S1)  Ryd( 4f)     0.00057       1.79579
   268    C    6  f(S1)  Ryd( 5f)     0.00021       3.72386
   269    C    6  f(C2)  Ryd( 4f)     0.00104       1.54662
   270    C    6  f(C2)  Ryd( 5f)     0.00003       3.55675
   271    C    6  f(S2)  Ryd( 4f)     0.00061       1.42645
   272    C    6  f(S2)  Ryd( 5f)     0.00005       3.59355
   273    C    6  f(C3)  Ryd( 4f)     0.00185       2.75926
   274    C    6  f(C3)  Ryd( 5f)     0.00020       4.60321
   275    C    6  f(S3)  Ryd( 4f)     0.00135       2.77553
   276    C    6  f(S3)  Ryd( 5f)     0.00016       4.46778
 
   277    N    7  S      Cor( 1S)     1.99931     -14.55172
   278    N    7  S      Val( 2S)     1.31324      -0.51534
   279    N    7  S      Ryd( 4S)     0.00278       2.91513
   280    N    7  S      Ryd( 3S)     0.00009       2.14789
   281    N    7  S      Ryd( 5S)     0.00002      10.02467
   282    N    7  px     Val( 2p)     1.03524      -0.12402
   283    N    7  px     Ryd( 5p)     0.00384       2.62033
   284    N    7  px     Ryd( 3p)     0.00004       2.29437
   285    N    7  px     Ryd( 4p)     0.00008       2.48341
   286    N    7  py     Val( 2p)     1.60307      -0.26099
   287    N    7  py     Ryd( 3p)     0.00430       1.72791
   288    N    7  py     Ryd( 5p)     0.00019       3.64662
   289    N    7  py     Ryd( 4p)     0.00005       2.47484
   290    N    7  pz     Val( 2p)     1.20058      -0.20613
   291    N    7  pz     Ryd( 4p)     0.00231       1.36333
   292    N    7  pz     Ryd( 5p)     0.00010       2.30298
   293    N    7  pz     Ryd( 3p)     0.00005       1.31489
   294    N    7  dxy    Ryd( 4d)     0.00451       3.08661
   295    N    7  dxy    Ryd( 5d)     0.00024       5.56086
   296    N    7  dxy    Ryd( 3d)     0.00008       2.30935
   297    N    7  dxz    Ryd( 4d)     0.00022       1.79845
   298    N    7  dxz    Ryd( 5d)     0.00016       4.91506
   299    N    7  dxz    Ryd( 3d)     0.00002       1.39673
   300    N    7  dyz    Ryd( 4d)     0.00378       1.56406
   301    N    7  dyz    Ryd( 5d)     0.00001       4.79338
   302    N    7  dyz    Ryd( 3d)     0.00006       1.20934
   303    N    7  dx2y2  Ryd( 4d)     0.00200       2.35597
   304    N    7  dx2y2  Ryd( 5d)     0.00029       5.21894
   305    N    7  dx2y2  Ryd( 3d)     0.00015       1.96702
   306    N    7  dz2    Ryd( 3d)     0.00542       2.05163
   307    N    7  dz2    Ryd( 5d)     0.00006       5.26005
   308    N    7  dz2    Ryd( 4d)     0.00009       2.53574
   309    N    7  f(0)   Ryd( 5f)     0.00006       4.45515
   310    N    7  f(0)   Ryd( 4f)     0.00010       2.81919
   311    N    7  f(C1)  Ryd( 5f)     0.00014       4.91965
   312    N    7  f(C1)  Ryd( 4f)     0.00003       4.32114
   313    N    7  f(S1)  Ryd( 5f)     0.00003       4.49807
   314    N    7  f(S1)  Ryd( 4f)     0.00006       3.91117
   315    N    7  f(C2)  Ryd( 5f)     0.00006       4.77960
   316    N    7  f(C2)  Ryd( 4f)     0.00001       2.81607
   317    N    7  f(S2)  Ryd( 5f)     0.00002       4.47622
   318    N    7  f(S2)  Ryd( 4f)     0.00002       3.07078
   319    N    7  f(C3)  Ryd( 5f)     0.00011       5.01174
   320    N    7  f(C3)  Ryd( 4f)     0.00010       4.25024
   321    N    7  f(S3)  Ryd( 4f)     0.00018       5.06651
   322    N    7  f(S3)  Ryd( 5f)     0.00009       5.53543
 
   323    C    8  S      Cor( 1S)     1.99908     -10.52694
   324    C    8  S      Val( 2S)     0.78305      -0.09550
   325    C    8  S      Ryd( 4S)     0.00426       1.97716
   326    C    8  S      Ryd( 3S)     0.00012       1.49242
   327    C    8  S      Ryd( 5S)     0.00008       2.79774
   328    C    8  px     Val( 2p)     0.87745      -0.03469
   329    C    8  px     Ryd( 5p)     0.00430       1.69439
   330    C    8  px     Ryd( 4p)     0.00022       1.33435
   331    C    8  px     Ryd( 3p)     0.00002       1.11977
   332    C    8  py     Val( 2p)     0.76832      -0.00832
   333    C    8  py     Ryd( 4p)     0.01327       1.64685
   334    C    8  py     Ryd( 3p)     0.00009       1.59025
   335    C    8  py     Ryd( 5p)     0.00005       1.89009
   336    C    8  pz     Val( 2p)     0.76214      -0.11202
   337    C    8  pz     Ryd( 5p)     0.00056       1.20198
   338    C    8  pz     Ryd( 4p)     0.00017       0.87817
   339    C    8  pz     Ryd( 3p)     0.00004       0.87759
   340    C    8  dxy    Ryd( 3d)     0.00203       2.82608
   341    C    8  dxy    Ryd( 4d)     0.00028       2.87106
   342    C    8  dxy    Ryd( 5d)     0.00006       3.59535
   343    C    8  dxz    Ryd( 3d)     0.00148       2.17748
   344    C    8  dxz    Ryd( 4d)     0.00008       2.20398
   345    C    8  dxz    Ryd( 5d)     0.00004       2.49512
   346    C    8  dyz    Ryd( 3d)     0.00181       2.16563
   347    C    8  dyz    Ryd( 4d)     0.00011       2.25944
   348    C    8  dyz    Ryd( 5d)     0.00007       2.59389
   349    C    8  dx2y2  Ryd( 4d)     0.00135       2.91082
   350    C    8  dx2y2  Ryd( 3d)     0.00021       2.87997
   351    C    8  dx2y2  Ryd( 5d)     0.00010       3.69787
   352    C    8  dz2    Ryd( 3d)     0.00053       2.94082
   353    C    8  dz2    Ryd( 4d)     0.00067       3.10224
   354    C    8  dz2    Ryd( 5d)     0.00010       3.74322
   355    C    8  f(0)   Ryd( 5f)     0.00013       3.68028
   356    C    8  f(0)   Ryd( 4f)     0.00003       2.32262
   357    C    8  f(C1)  Ryd( 5f)     0.00013       3.80264
   358    C    8  f(C1)  Ryd( 4f)     0.00002       3.13681
   359    C    8  f(S1)  Ryd( 5f)     0.00006       3.75860
   360    C    8  f(S1)  Ryd( 4f)     0.00004       3.29846
   361    C    8  f(C2)  Ryd( 5f)     0.00000       3.68471
   362    C    8  f(C2)  Ryd( 4f)     0.00005       2.64387
   363    C    8  f(S2)  Ryd( 5f)     0.00003       3.68381
   364    C    8  f(S2)  Ryd( 4f)     0.00002       2.70156
   365    C    8  f(C3)  Ryd( 4f)     0.00011       4.79218
   366    C    8  f(C3)  Ryd( 5f)     0.00003       4.86894
   367    C    8  f(S3)  Ryd( 4f)     0.00009       4.53444
   368    C    8  f(S3)  Ryd( 5f)     0.00004       7.58870
 
   369    O    9  S      Cor( 1S)     1.99979     -19.31350
   370    O    9  S      Val( 2S)     1.71135      -0.98161
   371    O    9  S      Ryd( 4S)     0.00114       3.03467
   372    O    9  S      Ryd( 3S)     0.00016       1.69728
   373    O    9  S      Ryd( 5S)     0.00002       8.93101
   374    O    9  px     Val( 2p)     1.85659      -0.32146
   375    O    9  px     Ryd( 4p)     0.00174       1.32069
   376    O    9  px     Ryd( 3p)     0.00006       0.94451
   377    O    9  px     Ryd( 5p)     0.00002       4.35268
   378    O    9  py     Val( 2p)     1.54413      -0.30941
   379    O    9  py     Ryd( 4p)     0.00071       1.64220
   380    O    9  py     Ryd( 3p)     0.00006       0.74000
   381    O    9  py     Ryd( 5p)     0.00009       5.37480
   382    O    9  pz     Val( 2p)     1.45382      -0.26986
   383    O    9  pz     Ryd( 4p)     0.00057       1.09665
   384    O    9  pz     Ryd( 3p)     0.00002       0.73601
   385    O    9  pz     Ryd( 5p)     0.00000       3.95180
   386    O    9  dxy    Ryd( 3d)     0.00582       1.95497
   387    O    9  dxy    Ryd( 4d)     0.00007       2.32602
   388    O    9  dxy    Ryd( 5d)     0.00006       6.71470
   389    O    9  dxz    Ryd( 3d)     0.00027       1.46463
   390    O    9  dxz    Ryd( 4d)     0.00002       1.50239
   391    O    9  dxz    Ryd( 5d)     0.00001       6.60483
   392    O    9  dyz    Ryd( 4d)     0.00628       1.62442
   393    O    9  dyz    Ryd( 3d)     0.00004       1.57253
   394    O    9  dyz    Ryd( 5d)     0.00003       6.59452
   395    O    9  dx2y2  Ryd( 3d)     0.00745       2.03349
   396    O    9  dx2y2  Ryd( 4d)     0.00008       2.72598
   397    O    9  dx2y2  Ryd( 5d)     0.00002       6.80578
   398    O    9  dz2    Ryd( 3d)     0.00281       1.67580
   399    O    9  dz2    Ryd( 4d)     0.00006       2.32416
   400    O    9  dz2    Ryd( 5d)     0.00000       6.68270
   401    O    9  f(0)   Ryd( 4f)     0.00011       3.11129
   402    O    9  f(0)   Ryd( 5f)     0.00000       5.54896
   403    O    9  f(C1)  Ryd( 4f)     0.00004       3.14627
   404    O    9  f(C1)  Ryd( 5f)     0.00002       5.56860
   405    O    9  f(S1)  Ryd( 4f)     0.00013       3.83822
   406    O    9  f(S1)  Ryd( 5f)     0.00001       5.90934
   407    O    9  f(C2)  Ryd( 4f)     0.00028       3.17916
   408    O    9  f(C2)  Ryd( 5f)     0.00001       5.65787
   409    O    9  f(S2)  Ryd( 4f)     0.00006       3.06480
   410    O    9  f(S2)  Ryd( 5f)     0.00000       5.77401
   411    O    9  f(C3)  Ryd( 4f)     0.00045       3.74078
   412    O    9  f(C3)  Ryd( 5f)     0.00002       5.99471
   413    O    9  f(S3)  Ryd( 4f)     0.00034       3.91121
   414    O    9  f(S3)  Ryd( 5f)     0.00002       6.08266
 
   415    O   10  S      Cor( 1S)     1.99978     -19.45363
   416    O   10  S      Val( 2S)     1.67309      -1.02481
   417    O   10  S      Ryd( 3S)     0.00028       1.67799
   418    O   10  S      Ryd( 4S)     0.00012       2.76662
   419    O   10  S      Ryd( 5S)     0.00002       9.38005
   420    O   10  px     Val( 2p)     1.41504      -0.34588
   421    O   10  px     Ryd( 4p)     0.00076       1.27167
   422    O   10  px     Ryd( 3p)     0.00013       0.96312
   423    O   10  px     Ryd( 5p)     0.00003       5.10695
   424    O   10  py     Val( 2p)     1.74587      -0.40083
   425    O   10  py     Ryd( 4p)     0.00072       1.14925
   426    O   10  py     Ryd( 3p)     0.00006       1.01831
   427    O   10  py     Ryd( 5p)     0.00007       4.68780
   428    O   10  pz     Val( 2p)     1.84995      -0.40657
   429    O   10  pz     Ryd( 4p)     0.00101       0.91778
   430    O   10  pz     Ryd( 3p)     0.00002       0.64450
   431    O   10  pz     Ryd( 5p)     0.00000       4.06313
   432    O   10  dxy    Ryd( 3d)     0.00715       2.13538
   433    O   10  dxy    Ryd( 4d)     0.00010       2.45896
   434    O   10  dxy    Ryd( 5d)     0.00004       6.95821
   435    O   10  dxz    Ryd( 3d)     0.00012       1.27497
   436    O   10  dxz    Ryd( 4d)     0.00010       1.94697
   437    O   10  dxz    Ryd( 5d)     0.00002       6.48249
   438    O   10  dyz    Ryd( 3d)     0.00438       1.28830
   439    O   10  dyz    Ryd( 4d)     0.00001       1.87489
   440    O   10  dyz    Ryd( 5d)     0.00002       6.46030
   441    O   10  dx2y2  Ryd( 3d)     0.00256       1.66854
   442    O   10  dx2y2  Ryd( 4d)     0.00008       2.41988
   443    O   10  dx2y2  Ryd( 5d)     0.00005       6.70256
   444    O   10  dz2    Ryd( 3d)     0.00297       1.53064
   445    O   10  dz2    Ryd( 4d)     0.00013       2.30595
   446    O   10  dz2    Ryd( 5d)     0.00001       6.70845
   447    O   10  f(0)   Ryd( 4f)     0.00048       2.80030
   448    O   10  f(0)   Ryd( 5f)     0.00001       5.92508
   449    O   10  f(C1)  Ryd( 4f)     0.00026       3.60841
   450    O   10  f(C1)  Ryd( 5f)     0.00002       6.20902
   451    O   10  f(S1)  Ryd( 4f)     0.00012       3.19576
   452    O   10  f(S1)  Ryd( 5f)     0.00001       6.13176
   453    O   10  f(C2)  Ryd( 4f)     0.00010       2.80048
   454    O   10  f(C2)  Ryd( 5f)     0.00000       6.06745
   455    O   10  f(S2)  Ryd( 4f)     0.00002       2.96117
   456    O   10  f(S2)  Ryd( 5f)     0.00001       6.01234
   457    O   10  f(C3)  Ryd( 4f)     0.00004       3.80378
   458    O   10  f(C3)  Ryd( 5f)     0.00003       6.44139
   459    O   10  f(S3)  Ryd( 4f)     0.00015       4.55585
   460    O   10  f(S3)  Ryd( 5f)     0.00006       6.57607
 
   461    H   11  S      Val( 1S)     0.78537      -0.01533
   462    H   11  S      Ryd( 4S)     0.00019       1.61303
   463    H   11  S      Ryd( 2S)     0.00010       0.66224
   464    H   11  S      Ryd( 3S)     0.00003       1.41022
   465    H   11  px     Ryd( 2p)     0.00055       1.07432
   466    H   11  px     Ryd( 4p)     0.00008       4.12353
   467    H   11  px     Ryd( 3p)     0.00002       2.56844
   468    H   11  py     Ryd( 2p)     0.00046       1.24128
   469    H   11  py     Ryd( 4p)     0.00008       4.03655
   470    H   11  py     Ryd( 3p)     0.00001       2.67579
   471    H   11  pz     Ryd( 2p)     0.00021       0.87152
   472    H   11  pz     Ryd( 4p)     0.00005       3.77801
   473    H   11  pz     Ryd( 3p)     0.00003       1.74834
   474    H   11  dxy    Ryd( 3d)     0.00010       2.35691
   475    H   11  dxy    Ryd( 4d)     0.00002       4.19807
   476    H   11  dxz    Ryd( 3d)     0.00003       1.96193
   477    H   11  dxz    Ryd( 4d)     0.00001       3.38946
   478    H   11  dyz    Ryd( 3d)     0.00001       1.94833
   479    H   11  dyz    Ryd( 4d)     0.00002       3.60843
   480    H   11  dx2y2  Ryd( 3d)     0.00002       2.15939
   481    H   11  dx2y2  Ryd( 4d)     0.00002       3.94493
   482    H   11  dz2    Ryd( 3d)     0.00009       1.99534
   483    H   11  dz2    Ryd( 4d)     0.00002       3.48390
 
   484    H   12  S      Val( 1S)     0.77816       0.00119
   485    H   12  S      Ryd( 4S)     0.00028       1.87422
   486    H   12  S      Ryd( 2S)     0.00008       0.36019
   487    H   12  S      Ryd( 3S)     0.00003       1.46126
   488    H   12  px     Ryd( 2p)     0.00035       0.87122
   489    H   12  px     Ryd( 4p)     0.00002       3.91888
   490    H   12  px     Ryd( 3p)     0.00003       1.93673
   491    H   12  py     Ryd( 2p)     0.00056       0.93905
   492    H   12  py     Ryd( 4p)     0.00009       4.03364
   493    H   12  py     Ryd( 3p)     0.00002       2.43611
   494    H   12  pz     Ryd( 2p)     0.00058       0.99587
   495    H   12  pz     Ryd( 4p)     0.00008       4.15066
   496    H   12  pz     Ryd( 3p)     0.00001       2.95748
   497    H   12  dxy    Ryd( 3d)     0.00002       2.38818
   498    H   12  dxy    Ryd( 4d)     0.00001       3.23982
   499    H   12  dxz    Ryd( 3d)     0.00002       2.34128
   500    H   12  dxz    Ryd( 4d)     0.00001       3.34422
   501    H   12  dyz    Ryd( 3d)     0.00011       2.35292
   502    H   12  dyz    Ryd( 4d)     0.00001       3.94207
   503    H   12  dx2y2  Ryd( 3d)     0.00002       2.35970
   504    H   12  dx2y2  Ryd( 4d)     0.00002       3.11948
   505    H   12  dz2    Ryd( 3d)     0.00004       2.37907
   506    H   12  dz2    Ryd( 4d)     0.00002       3.68285
 
   507    H   13  S      Val( 1S)     0.77878       0.00078
   508    H   13  S      Ryd( 4S)     0.00028       1.87565
   509    H   13  S      Ryd( 2S)     0.00008       0.35863
   510    H   13  S      Ryd( 3S)     0.00003       1.46040
   511    H   13  px     Ryd( 2p)     0.00034       0.87959
   512    H   13  px     Ryd( 4p)     0.00002       3.91283
   513    H   13  px     Ryd( 3p)     0.00003       1.94260
   514    H   13  py     Ryd( 2p)     0.00052       0.93828
   515    H   13  py     Ryd( 4p)     0.00008       4.01204
   516    H   13  py     Ryd( 3p)     0.00002       2.37998
   517    H   13  pz     Ryd( 2p)     0.00061       1.01420
   518    H   13  pz     Ryd( 4p)     0.00008       4.17484
   519    H   13  pz     Ryd( 3p)     0.00001       2.98829
   520    H   13  dxy    Ryd( 3d)     0.00002       2.39232
   521    H   13  dxy    Ryd( 4d)     0.00001       3.21043
   522    H   13  dxz    Ryd( 3d)     0.00002       2.34802
   523    H   13  dxz    Ryd( 4d)     0.00001       3.36530
   524    H   13  dyz    Ryd( 3d)     0.00011       2.35324
   525    H   13  dyz    Ryd( 4d)     0.00001       3.91886
   526    H   13  dx2y2  Ryd( 3d)     0.00002       2.36082
   527    H   13  dx2y2  Ryd( 4d)     0.00002       3.08589
   528    H   13  dz2    Ryd( 3d)     0.00005       2.39528
   529    H   13  dz2    Ryd( 4d)     0.00002       3.71029
 
   530    H   14  S      Val( 1S)     0.78431       0.00750
   531    H   14  S      Ryd( 3S)     0.00033       1.89523
   532    H   14  S      Ryd( 2S)     0.00009       0.45682
   533    H   14  S      Ryd( 4S)     0.00003       2.13863
   534    H   14  px     Ryd( 2p)     0.00037       1.28180
   535    H   14  px     Ryd( 4p)     0.00013       4.11725
   536    H   14  px     Ryd( 3p)     0.00002       3.01352
   537    H   14  py     Ryd( 2p)     0.00036       1.10084
   538    H   14  py     Ryd( 4p)     0.00019       4.13391
   539    H   14  py     Ryd( 3p)     0.00003       3.13843
   540    H   14  pz     Ryd( 2p)     0.00135       0.67408
   541    H   14  pz     Ryd( 4p)     0.00000       3.97058
   542    H   14  pz     Ryd( 3p)     0.00005       1.72303
   543    H   14  dxy    Ryd( 3d)     0.00005       1.92422
   544    H   14  dxy    Ryd( 4d)     0.00004       4.38298
   545    H   14  dxz    Ryd( 3d)     0.00001       1.33870
   546    H   14  dxz    Ryd( 4d)     0.00001       3.94720
   547    H   14  dyz    Ryd( 3d)     0.00002       1.37085
   548    H   14  dyz    Ryd( 4d)     0.00001       3.98057
   549    H   14  dx2y2  Ryd( 3d)     0.00002       2.02022
   550    H   14  dx2y2  Ryd( 4d)     0.00004       4.43442
   551    H   14  dz2    Ryd( 3d)     0.00003       1.61999
   552    H   14  dz2    Ryd( 4d)     0.00003       3.98658
 
   553    H   15  S      Val( 1S)     0.77440       0.04260
   554    H   15  S      Ryd( 4S)     0.00039       1.71947
   555    H   15  S      Ryd( 2S)     0.00011       0.71322
   556    H   15  S      Ryd( 3S)     0.00002       1.23807
   557    H   15  px     Ryd( 2p)     0.00061       0.97337
   558    H   15  px     Ryd( 4p)     0.00007       4.02724
   559    H   15  px     Ryd( 3p)     0.00005       2.65080
   560    H   15  py     Ryd( 2p)     0.00024       0.96556
   561    H   15  py     Ryd( 4p)     0.00005       3.63483
   562    H   15  py     Ryd( 3p)     0.00005       2.25214
   563    H   15  pz     Ryd( 2p)     0.00050       1.00021
   564    H   15  pz     Ryd( 4p)     0.00007       4.37491
   565    H   15  pz     Ryd( 3p)     0.00005       3.15167
   566    H   15  dxy    Ryd( 3d)     0.00002       2.31960
   567    H   15  dxy    Ryd( 4d)     0.00002       3.34182
   568    H   15  dxz    Ryd( 3d)     0.00009       2.48190
   569    H   15  dxz    Ryd( 4d)     0.00002       4.09962
   570    H   15  dyz    Ryd( 3d)     0.00002       2.32749
   571    H   15  dyz    Ryd( 4d)     0.00002       3.40638
   572    H   15  dx2y2  Ryd( 3d)     0.00003       2.33753
   573    H   15  dx2y2  Ryd( 4d)     0.00001       3.24548
   574    H   15  dz2    Ryd( 3d)     0.00003       2.32885
   575    H   15  dz2    Ryd( 4d)     0.00002       3.81474
 
   576    H   16  S      Val( 1S)     0.77441       0.04258
   577    H   16  S      Ryd( 4S)     0.00039       1.71954
   578    H   16  S      Ryd( 2S)     0.00011       0.71311
   579    H   16  S      Ryd( 3S)     0.00002       1.23784
   580    H   16  px     Ryd( 2p)     0.00061       0.97297
   581    H   16  px     Ryd( 4p)     0.00007       4.02552
   582    H   16  px     Ryd( 3p)     0.00005       2.65038
   583    H   16  py     Ryd( 2p)     0.00024       0.96513
   584    H   16  py     Ryd( 4p)     0.00005       3.63231
   585    H   16  py     Ryd( 3p)     0.00005       2.25467
   586    H   16  pz     Ryd( 2p)     0.00050       1.00024
   587    H   16  pz     Ryd( 4p)     0.00007       4.37727
   588    H   16  pz     Ryd( 3p)     0.00005       3.15160
   589    H   16  dxy    Ryd( 3d)     0.00002       2.31957
   590    H   16  dxy    Ryd( 4d)     0.00002       3.34102
   591    H   16  dxz    Ryd( 3d)     0.00009       2.48166
   592    H   16  dxz    Ryd( 4d)     0.00002       4.09904
   593    H   16  dyz    Ryd( 3d)     0.00002       2.32745
   594    H   16  dyz    Ryd( 4d)     0.00002       3.40681
   595    H   16  dx2y2  Ryd( 3d)     0.00003       2.33755
   596    H   16  dx2y2  Ryd( 4d)     0.00001       3.24448
   597    H   16  dz2    Ryd( 3d)     0.00003       2.32935
   598    H   16  dz2    Ryd( 4d)     0.00002       3.81560
 
   599    H   17  S      Val( 1S)     0.79391       0.03161
   600    H   17  S      Ryd( 4S)     0.00037       1.82287
   601    H   17  S      Ryd( 2S)     0.00014       0.72200
   602    H   17  S      Ryd( 3S)     0.00002       1.25367
   603    H   17  px     Ryd( 2p)     0.00063       1.24017
   604    H   17  px     Ryd( 3p)     0.00005       2.89418
   605    H   17  px     Ryd( 4p)     0.00006       3.77552
   606    H   17  py     Ryd( 2p)     0.00074       1.10510
   607    H   17  py     Ryd( 3p)     0.00004       3.40392
   608    H   17  py     Ryd( 4p)     0.00005       3.95010
   609    H   17  pz     Ryd( 2p)     0.00004       0.90335
   610    H   17  pz     Ryd( 3p)     0.00005       2.01212
   611    H   17  pz     Ryd( 4p)     0.00002       3.70821
   612    H   17  dxy    Ryd( 3d)     0.00011       2.52482
   613    H   17  dxy    Ryd( 4d)     0.00002       4.00907
   614    H   17  dxz    Ryd( 3d)     0.00001       2.03401
   615    H   17  dxz    Ryd( 4d)     0.00002       3.34675
   616    H   17  dyz    Ryd( 3d)     0.00001       2.10799
   617    H   17  dyz    Ryd( 4d)     0.00001       3.39070
   618    H   17  dx2y2  Ryd( 3d)     0.00002       2.36678
   619    H   17  dx2y2  Ryd( 4d)     0.00002       3.79781
   620    H   17  dz2    Ryd( 3d)     0.00004       2.32811
   621    H   17  dz2    Ryd( 4d)     0.00002       3.43313
 
   622    H   18  S      Val( 1S)     0.49173       0.14515
   623    H   18  S      Ryd( 4S)     0.00110       1.90133
   624    H   18  S      Ryd( 3S)     0.00015       1.63633
[...]
 86,-0.1740711,-0.1754197,0.0161882,0.4131825,0.0155031,-0.1854585,-0.2
 038238,0.4261881,-0.2102439,-0.1419415,1.5316543,-0.5902068,0.1511785,
 -0.5899528,0.6231657,-0.018409,0.1628356,-0.0235153,2.0233206,-0.61832
 73,0.1265138,0.0929201,0.1268719,-0.4353494,-0.0816238,0.1079505,-0.08
 97318,-1.4406422,-1.1986698,0.4153846,-0.0700036,0.4150312,-0.561007,0
 .0298749,-0.0935266,0.0414887,-0.500555,0.0353184,0.0261845,0.0365416,
 0.0250146,0.0757428,-0.0199723,-0.0387637,0.016606,-0.0649992,-0.00901
 05,0.0012233,-0.0525117,0.074668,-0.0558122,-0.0000244,-0.0097292,-0.0
 517251,0.0577853,-0.0791302,0.0232578,-0.0317709,-0.0486272,0.011232,0
 .0441265,0.0371909,0.0409672,0.0546855,0.0916983,0.0411972,-0.0233719,
 0.0414572,0.1558022,0.0057734,-0.0167455,0.0023373,-0.0035392,0.012737
 7,0.0158742,0.0338901,0.0590995,-0.0618514,0.0263032,0.0201736,0.05523
 22,0.054344,-0.0714011,-0.0055938,0.0033588,-0.0502683,0.0166829,-0.03
 9597,-0.0256777,-0.0473287,0.0598318,0.0392002,0.0175146,-0.0306798,0.
 0201427,0.0669434,0.0083041,0.0475637,-0.0304508,-0.1292864,0.3576142,
 -0.014732,0.0729361,-0.0157548,0.3294856,-0.0392333,0.0427984,-0.02427
 89,0.2313219\Polar=103.2044508,-21.0285006,70.4587459,8.4115923,-2.616
 8825,106.3019091\Quadrupole=4.2588055,-1.4353112,-2.8234944,-3.3553667
 ,6.944177,-3.4368921\PG=C01 [X(C6H8N2O2)]\NImag=1\\0.52548057,0.029341
 64,0.57269391,-0.02661673,0.01428334,0.62156523,-0.20988428,0.07309528
 ,-0.01876984,0.72255726,0.07296074,-0.09538151,0.00748257,-0.27910150,
 0.29355407,-0.02599242,0.01098727,-0.10905471,0.03206035,0.00193753,0.
 67975404,-0.01923268,0.00754930,0.00925814,-0.20964699,0.07628478,0.08
 757475,0.53329276,0.00678633,-0.00868963,-0.00392297,0.07679338,-0.100
 79654,-0.04773480,-0.19921395,0.22559841,-0.00615845,0.00372206,0.0141
 1646,0.09719476,-0.05248191,-0.18934805,0.06490726,-0.00677810,0.88979
 335,0.00070104,0.00162718,0.00498227,-0.06639330,0.03975478,0.02423504
 ,-0.24554064,0.08225286,-0.13078211,0.67876136,0.00164670,0.00278090,-
 0.00252125,0.03775112,-0.00708640,-0.01206698,0.08337173,-0.11015875,0
 .06033224,-0.25455859,0.29286936,0.00462930,-0.00255636,0.00048413,-0.
 03392527,0.01705294,0.01154293,-0.09727862,0.04368512,-0.20640361,-0.0
 1143792,0.01940817,0.57895796,0.00049469,0.00091514,0.00025633,-0.0003
 5841,0.00336414,0.00007689,-0.01624746,0.00895823,0.00754568,-0.194910
 71,0.06522584,0.03584087,0.51883050,0.00087979,0.00186550,-0.00016604,
 0.00318726,0.00484465,-0.00023276,0.00831213,-0.00290264,-0.00342340,0
 .06549758,-0.09878210,-0.01898179,0.01785926,0.54423335,-0.00020652,0.
 00006735,0.00109659,-0.00561545,0.00256834,0.00002892,-0.01218423,0.00
 634854,0.01083493,0.04416018,-0.02310294,-0.10250136,0.02180767,-0.009
 99075,0.57791290,0.00626542,-0.00101866,0.00304325,-0.07297148,0.04045
 793,-0.07362185,0.02787894,-0.00839571,0.00572775,-0.12181696,0.026011
 50,0.03542623,-0.00201458,0.00131023,0.02459204,0.60340185,-0.00087683
 ,0.00476564,-0.00198950,0.04125908,-0.00642710,0.03368916,-0.01067263,
 0.01575789,-0.00507486,0.02696585,-0.08578888,-0.02360217,0.00068780,-
 0.00179511,-0.01211517,-0.22183699,0.26076451,0.00089600,-0.00083420,-
 0.00852851,-0.04107684,0.01750143,-0.07044574,-0.06382758,0.02945433,-
 0.05633575,0.06336834,-0.03741956,-0.25125297,0.00622870,-0.00301468,0
 .00102542,0.06964012,-0.01517091,0.72981025,-0.01120456,0.00086461,-0.
 04365695,-0.10941064,0.01336403,-0.06368897,-0.01971580,0.02048518,0.0
 0073702,-0.03093339,0.02741982,0.07218302,0.00176892,0.00149637,0.0008
 0751,-0.30605143,0.11614679,0.03507394,0.50142308,0.00155125,-0.007249
 97,0.02143007,0.01514108,-0.08430966,0.02368597,0.02161970,0.01057750,
 -0.00446699,0.02534711,0.00568149,-0.03664438,0.00138943,0.00403051,-0
 .00080317,0.11514920,-0.13173534,-0.01800459,-0.19304541,0.20695647,-0
 .01322058,0.00654928,-0.01410048,-0.01733812,0.00044783,-0.31625940,0.
 03510162,-0.02143661,-0.10075483,0.01023237,-0.00587578,-0.00556468,-0
 .00256144,0.00084931,-0.00733512,0.00527375,-0.00318005,-0.09181132,0.
 01328448,0.00765942,0.53900140,-0.00097297,0.00159921,-0.00159901,-0.0
 0495038,0.00673365,0.01066516,0.00472113,0.00078640,0.00557176,0.01424
 339,-0.00801176,0.00431024,0.00006966,-0.00108251,-0.00160669,-0.11009
 244,0.01442010,-0.05816817,-0.02497946,0.00581957,-0.03440898,0.565745
 68,0.00149236,0.00159014,0.00067461,0.00679393,0.00448427,-0.00470789,
 0.00084734,0.00541932,-0.00316815,-0.00842568,0.00184290,-0.00275197,-
 0.00103721,-0.00145505,0.00085030,0.01492639,-0.08360692,0.02485737,0.
 00606635,-0.01337538,0.01699575,-0.17682484,0.30714006,-0.00383036,0.0
 0186251,-0.00072172,0.01062816,-0.00480111,0.02507085,0.00772011,-0.00
 423305,-0.00632638,-0.00762136,0.00315186,-0.02111685,-0.00037251,0.00
 023254,-0.00036470,-0.04372350,0.01767037,-0.19581634,-0.02704191,0.01
 339011,-0.01223990,-0.11262979,0.08151745,0.98929458,0.00006551,-0.000
 16345,-0.00001392,0.00201276,-0.00122397,0.00097014,0.00012151,-0.0008
 8010,-0.00224925,-0.00193292,0.00238845,-0.00225267,-0.00038188,0.0004
 6788,0.00049354,0.01838677,0.00125482,-0.00271980,-0.00149523,0.001216
 12,-0.00227105,-0.19146874,0.06202000,0.21396464,0.21420640,-0.0001014
 4,-0.00023326,0.00003984,-0.00133339,0.00012745,-0.00081053,-0.0008916
 9,-0.00102634,0.00110710,0.00221922,0.00197717,0.00109421,0.00045652,0
 .00029275,-0.00025747,0.00164334,0.02023036,-0.00145731,0.00162749,0.0
 0034816,0.00133674,0.06178875,-0.11548791,-0.12527472,-0.09858643,0.08
 818141,0.00202731,-0.00099672,0.00070364,-0.00239301,0.00090123,-0.010
 37653,-0.00263279,0.00129612,-0.00174323,-0.00741638,0.00365020,0.0024
 5790,0.00016893,-0.00009445,0.00014144,0.00932757,-0.00741514,-0.06265
 506,0.01006149,-0.00479341,0.00732681,0.20702858,-0.12185420,-0.659997
 68,-0.27723415,0.16081177,0.73729160,0.00105139,-0.00072139,-0.0000869
 8,-0.00188794,0.00051876,-0.00612786,-0.00208462,0.00086424,-0.0005031
 1,-0.00298146,0.00151150,0.00155431,-0.00088926,-0.00004266,0.00065951
 ,-0.03155269,0.02115076,-0.00647162,0.00544034,-0.00165547,-0.00204968
 ,-0.22525844,0.07967519,0.01250543,-0.04626818,0.03971338,0.05825677,0
 .39587332,-0.00068377,-0.00003262,0.00004730,0.00058507,-0.00066302,0.
 00299477,0.00088639,-0.00073995,0.00027350,0.00149620,-0.00079016,-0.0
 0076964,-0.00008012,-0.00099972,-0.00042334,0.02021397,0.00157683,0.00
 298853,-0.00161201,0.00307720,0.00077532,0.07877703,-0.10489029,-0.008
 26611,0.04001037,0.00901901,-0.03010682,-0.17391362,0.12305992,0.00076
 566,-0.00038116,-0.00037770,-0.00357487,0.00173500,-0.00180152,0.00010
 074,-0.00002725,0.00039883,0.00087770,-0.00043266,0.00005390,-0.000415
 16,0.00010728,-0.00392685,-0.03403913,0.01667762,0.00518355,-0.0008686
 6,0.00018476,-0.00503109,-0.01497866,0.00537600,-0.12716458,0.06740058
 ,-0.03464884,-0.00646582,0.11017335,-0.03646648,0.58415810,-0.05115601
 ,0.00123362,-0.00315513,-0.00359546,-0.00019400,-0.03707616,0.00101014
 ,-0.00040007,-0.00064576,0.00005841,-0.00013625,-0.00025750,-0.0000178
 1,-0.00006234,0.00008026,-0.00050640,0.00049877,-0.00205017,-0.0052185
 6,0.00295127,0.00089087,-0.00025902,0.00017492,0.00058458,0.00003618,-
 0.00002300,-0.00018475,-0.00023677,0.00009853,-0.00022763,0.05689497,0
 .00098501,-0.04913368,-0.00255687,0.00056631,-0.00245288,0.01792738,-0
 .00035226,0.00044505,0.00034508,-0.00013933,-0.00015927,0.00014924,-0.
 00005790,-0.00010691,-0.00003220,0.00059630,0.00042710,0.00096090,0.00
 269145,-0.00087259,-0.00049148,0.00018012,0.00000872,-0.00028251,-0.00
 002226,0.00000912,0.00008721,0.00009712,-0.00007461,0.00010919,-0.0053
 8016,0.04770668,-0.01639742,0.00385681,-0.32695205,0.00063625,-0.00052
 296,-0.01013836,0.00141352,-0.00070504,0.00069816,-0.00037491,0.000171
 80,-0.00003709,0.00003555,-0.00000887,0.00004109,0.00006669,-0.0000710
 1,-0.00023172,-0.00192485,0.00102869,0.00119265,0.00012776,-0.00005075
 ,0.00034822,-0.00006070,0.00002546,-0.00009391,-0.00018056,0.00008618,
 -0.00010498,0.01706563,-0.00372427,0.35253760,-0.04696335,-0.00220792,
 -0.00073582,-0.01247073,0.03642867,0.01171310,0.00121312,0.00167426,-0
 .00315506,-0.00167212,0.00014600,-0.00107118,-0.00026918,-0.00038686,-
 0.00022808,-0.00210335,0.00064184,0.00057822,0.00327520,-0.00123374,0.
 00297816,0.00007425,-0.00039926,0.00080316,0.00005651,-0.00000430,-0.0
 0040002,-0.00014606,0.00011995,-0.00010959,-0.00043421,-0.00183178,0.0
 0035161,0.05728093,0.00446658,-0.28741029,-0.09175063,0.00993058,-0.01
 180806,-0.00344783,-0.00216975,-0.00033649,0.00184625,0.00053582,-0.00
 010115,0.00124481,0.00008836,0.00015483,0.00012292,0.00181960,-0.00055
 837,-0.00012664,-0.00204028,0.00134151,-0.00183086,-0.00014400,0.00011
 237,-0.00079409,-0.00006102,0.00005671,0.00039048,0.00010493,-0.000066
 59,0.00011626,-0.00104766,0.00384033,0.00077411,-0.01122880,0.30989917
 ,0.00374119,-0.09530407,-0.08653944,-0.00359996,0.01130708,0.00324626,
 0.00151423,-0.00023229,-0.00078833,-0.00056049,0.00078486,-0.00081365,
 -0.00011991,-0.00019748,-0.00007606,-0.00080682,0.00074010,0.00042825,
 0.00089003,-0.00049048,0.00181352,-0.00030841,-0.00030770,0.00033208,0
 .00013684,-0.00000509,-0.00013943,0.00004756,0.00002162,-0.00003251,0.
 00074387,-0.02994258,-0.00854845,-0.00089297,0.10069925,0.08537673,-0.
 19552035,-0.11046050,0.07600757,-0.03457702,-0.00685768,0.01019652,0.0
 0053274,-0.00298346,-0.00316516,-0.00107241,0.00096159,-0.00179125,0.0
 0014143,0.00039519,-0.00025345,-0.00240992,0.00176400,0.00044584,0.003
 66430,-0.00166043,0.00336400,0.00041210,0.00014585,0.00114695,0.000072
 67,-0.00006855,-0.00057149,-0.00022244,0.00005669,-0.00016410,0.003863
 28,0.00225961,-0.00056764,0.00215329,-0.00026075,-0.00049761,0.2231794
 8,-0.11672756,-0.13389526,0.05945678,0.01885505,0.01003951,-0.00746398
 ,0.00109498,0.00045332,0.00122557,0.00057987,-0.00076134,0.00011591,-0
 .00007170,-0.00024007,0.00010961,0.00045787,-0.00038444,-0.00031694,-0
 .00094552,0.00094631,-0.00123391,-0.00019249,-0.00016550,-0.00015016,0
 .00002503,0.00002850,0.00008010,0.00008275,-0.00001190,0.00001501,0.00
 186855,0.00020035,-0.00098021,-0.02206050,-0.01505315,0.01308045,0.116
 85945,0.13868671,0.08153382,0.05807662,-0.09121861,-0.01120837,-0.0042
 7056,0.00357159,0.00106891,-0.00110711,-0.00070779,-0.00098624,-0.0000
 7366,-0.00078734,0.00008098,0.00020806,-0.00008811,-0.00101726,0.00025
 549,0.00046245,0.00094937,-0.00037938,0.00179029,0.00006499,0.00045692
 ,0.00028768,0.00007982,-0.00011072,-0.00012776,0.00000927,-0.00005387,
 -0.00002938,0.02386046,0.01763856,-0.00929679,-0.01001481,-0.00711878,
 0.00549241,-0.08438477,-0.06386238,0.09042547,0.00080513,-0.00144925,0
 .00078276,0.00496467,-0.00359137,0.02553708,-0.05709519,0.01341758,-0.
 04004478,0.00657802,-0.00270740,-0.01768575,0.00084742,-0.00210361,-0.
 00037549,-0.00312348,0.00372885,-0.00339618,-0.00227311,0.00466185,0.0
 0326506,0.00132364,-0.00002896,-0.00013231,-0.00021170,-0.00019515,-0.
 00081937,-0.00011765,0.00001549,-0.00002107,-0.00038864,0.00037665,-0.
 00015451,0.00010839,-0.00002733,-0.00024298,-0.00005798,0.00009562,0.0
 0001907,0.04872383,-0.00149113,-0.00140716,-0.00036206,-0.00458218,-0.
 00213752,-0.01300082,0.01370818,-0.03388178,0.00897450,-0.00199757,0.0
 0359458,0.00853993,-0.00208457,-0.00232919,0.00031053,0.00381992,0.002
 78593,0.00147743,0.00459804,0.00455587,-0.00182868,-0.00000420,0.00127
 301,0.00003317,-0.00017524,-0.00044857,0.00041108,0.00000656,-0.000087
 41,0.00001282,0.00038405,0.00016551,0.00010118,0.00021177,-0.00000204,
 -0.00018675,-0.00014645,0.00016665,0.00032230,-0.01250157,0.02742719,-
 0.00083871,0.00049414,-0.00021038,-0.00530349,0.00232164,-0.01339201,-
 0.03072669,0.00433505,-0.35526883,0.00352583,-0.00198135,-0.00458834,0
 .00019838,0.00002581,0.00034534,-0.00074822,0.00016195,-0.00162438,0.0
 0154923,-0.00098207,0.00044787,0.00069194,-0.00037402,0.00030781,-0.00
 023984,0.00012247,-0.00043186,-0.00029560,0.00014884,-0.00001809,0.000
 35374,-0.00017731,0.00055994,0.00008434,-0.00004740,0.00019684,0.00010
 246,-0.00004780,0.00017129,0.03222837,-0.00427601,0.37340528,-0.000137
 35,-0.00041791,0.00028107,-0.00194388,-0.00033152,0.00105099,-0.000540
 43,0.00133119,0.00207097,-0.00601758,0.02874043,-0.01173335,-0.0446070
 5,0.01811326,-0.00646041,0.00169452,-0.00076318,-0.00042077,-0.0014466
 0,0.00000008,-0.00097713,-0.00026982,0.00087922,-0.00007297,-0.0000119
 8,-0.00010287,0.00030214,-0.00011588,-0.00024332,0.00001921,0.00002314
 ,0.00001865,-0.00000925,0.00001403,-0.00000037,0.00002006,-0.00016391,
 0.00009122,-0.00005748,0.00018536,0.00039163,-0.00005062,0.05271986,-0
 .00000236,0.00019668,-0.00014527,0.00071474,-0.00020233,-0.00116189,-0
 .00088355,-0.00017253,-0.00132572,0.00396662,-0.01094257,0.00343800,0.
 01804935,-0.27986490,0.09330921,-0.00061050,0.00108967,0.00070000,0.00
 131073,-0.00025850,0.00061905,0.00188984,-0.00126229,0.00035639,-0.000
 67809,0.00026334,0.00006764,-0.00088452,0.00096328,0.00067288,-0.00001
 273,-0.00000581,0.00000336,0.00000259,-0.00000804,-0.00000104,0.000065
 96,-0.00004018,0.00003185,-0.00001961,-0.00008435,0.00001744,-0.022752
 01,0.30272205,0.00003139,0.00018529,-0.00008618,0.00081898,-0.00047399
 ,-0.00139949,-0.00041325,0.00017411,0.00019595,-0.00081711,-0.01086066
 ,0.00460646,-0.00579296,0.09410329,-0.08360459,-0.00061386,0.00002503,
 -0.00067919,0.00094649,0.00008337,0.00094575,0.00202454,-0.00126161,0.
 00056631,-0.00043749,0.00029549,-0.00006061,-0.00093391,0.00039784,-0.
 00036191,-0.00000339,-0.00000040,-0.00000342,-0.00000837,-0.00000942,0
 .00000481,0.00006165,-0.00002576,0.00003958,0.00023026,0.00011908,0.00
 002203,0.00592983,-0.10225519,0.08696844,0.00027731,0.00032855,0.00026
 143,-0.00096031,0.00148521,0.00147839,-0.00047019,-0.00074374,0.002369
 22,-0.02492643,-0.01070747,-0.00849425,-0.21486652,-0.11389583,-0.0685
 9232,0.00194238,-0.00043359,-0.00086043,-0.00134142,0.00132696,-0.0011
 0164,-0.00217995,0.00035801,-0.00027503,0.00052796,-0.00024723,0.00012
 789,0.00107190,0.00003221,-0.00056216,0.00000041,-0.00002796,-0.000006
 84,-0.00016305,0.00006276,-0.00005862,0.00000068,-0.00001062,0.0000116
 5,-0.00016441,-0.00029476,-0.00002377,0.00197317,0.00075516,0.00102346
 ,0.23714873,-0.00011189,-0.00023385,-0.00012529,0.00040662,-0.00114943
 ,-0.00016033,0.00129832,-0.00021976,-0.00085816,0.01498625,0.00870374,
 0.00664128,-0.11381444,-0.11884001,-0.04641522,-0.00057632,0.00082885,
 -0.00015484,0.00013261,-0.00039868,0.00047408,-0.00049639,0.00064707,-
 0.00014731,0.00028112,-0.00029295,-0.00027698,0.00062975,-0.00025970,-
 0.00044473,0.00000349,0.00001515,0.00000389,0.00009795,-0.00004255,0.0
 0002816,-0.00001284,0.00000810,-0.00001461,0.00012803,0.00025285,0.000
 01391,-0.02413762,-0.01628034,-0.01049310,0.12019231,0.12840843,-0.000
 13062,-0.00013699,-0.00007633,0.00083961,-0.00042375,-0.00143485,-0.00
 044147,0.00027089,0.00017846,0.00813384,0.00729139,0.00386924,-0.06881
 830,-0.04742421,-0.07436312,-0.00043056,0.00040601,-0.00066356,0.00056
 010,-0.00076999,0.00098025,0.00233052,-0.00086362,0.00056869,-0.000530
 60,0.00018860,-0.00004593,-0.00095403,0.00049713,-0.00032498,-0.000002
 22,0.00000137,-0.00000356,0.00005854,-0.00002961,0.00003856,0.00000363
 ,0.00001395,0.00000621,0.00004279,-0.00026013,0.00003415,0.01031346,0.
 00657390,0.00333505,0.07454537,0.05174961,0.07684343,0.00008223,-0.000
 08931,-0.00003995,-0.00003324,-0.00010153,0.00035275,0.00171855,-0.000
 75246,0.00045317,-0.00225888,0.00123459,0.03190543,-0.04765918,0.00001
 824,0.00254342,-0.00343073,0.00210826,-0.00089699,-0.00100897,0.000716
 56,0.00126703,-0.00140344,0.00061910,-0.00062228,0.00040046,-0.0002458
 1,0.00019135,0.00091132,-0.00017885,-0.00055761,-0.00003735,0.00002545
 ,-0.00002713,0.00000554,-0.00000255,-0.00000841,-0.00001436,0.00000128
 ,0.00000190,-0.00014738,0.00016611,-0.00052712,-0.00140202,-0.00079430
 ,-0.00195914,0.00194482,0.00100289,-0.02542842,0.05223210,-0.00009019,
 -0.00004444,0.00002042,-0.00010096,-0.00022658,-0.00017015,-0.00080692
 ,0.00056747,-0.00018241,0.00016865,-0.00254417,-0.01604765,0.00012355,
 -0.04820258,-0.01034287,0.00216594,-0.00017211,0.00046195,0.00067891,-
 0.00000771,-0.00064690,0.00061290,-0.00040702,0.00032660,-0.00024273,0
 .00000894,-0.00010480,-0.00015306,0.00067259,0.00023648,0.00002615,0.0
 0000145,0.00001409,0.00001482,-0.00001374,-0.00000943,-0.00001325,0.00
 000397,0.00001304,0.00020887,0.00012797,0.00025503,-0.00070398,0.00378
 930,0.02995894,0.00183149,-0.00110073,-0.01712510,-0.00370990,0.047475
 23,-0.00012939,0.00006721,-0.00004360,0.00046975,-0.00023267,-0.000148
 05,-0.00120998,0.00064415,0.00146393,0.00005124,-0.00026640,-0.0091451
 4,0.00570268,-0.01190755,-0.31881331,0.00080413,-0.00038023,0.00141927
 ,0.00015100,-0.00009386,-0.00021597,-0.00079011,0.00040933,0.00040888,
 0.00028163,-0.00014948,-0.00040491,0.00020975,-0.00014467,-0.00062857,
 0.00001587,-0.00000803,0.00002024,0.00002922,-0.00001874,0.00000280,0.
 00003600,-0.00001184,0.00000246,0.00075284,-0.00037994,0.00003409,-0.0
 0019478,-0.00098857,-0.01031938,0.00024285,0.00023040,-0.00877700,-0.0
 0662029,0.01333099,0.34514081,-0.00015173,-0.00002614,-0.00019848,-0.0
 0045062,0.00004885,0.00059610,0.00008510,0.00001984,0.00012610,0.00011
 457,-0.00028779,0.00007835,0.00006943,0.00003662,0.00037850,-0.0034964
 1,0.00395629,0.00365738,-0.00049266,0.00070489,-0.00172874,-0.02475519
 ,0.01271727,-0.05103100,0.00588392,-0.00564884,0.00415994,-0.09258688,
 0.03441979,-0.12381862,-0.00003628,0.00001500,0.00000681,0.00004080,-0
 .00002612,0.00000239,0.00001843,-0.00000329,-0.00001133,0.00004308,-0.
 00000858,0.00001977,0.00004642,-0.00011733,-0.00008710,0.00018494,-0.0
 0000985,-0.00009163,0.00010053,-0.00001029,0.00019758,0.11538255,-0.00
 002523,-0.00018110,0.00010496,0.00003852,-0.00040894,-0.00026413,0.000
 01789,0.00010547,-0.00006660,-0.00027684,-0.00033535,-0.00001564,0.000
 02833,0.00009670,-0.00020367,0.00386599,0.00224150,-0.00190227,0.00076
 083,0.00069283,0.00081748,0.01414863,-0.00186749,0.02540804,-0.0056305
 1,-0.00305387,-0.00205329,0.03301578,-0.02975285,0.04715782,0.00001686
 ,-0.00001373,-0.00000246,0.00001530,-0.00000446,0.00001538,-0.00004443
 ,0.00001843,-0.00001174,-0.00000868,0.00002846,-0.00001032,-0.00011291
 ,0.00009752,0.00003769,-0.00001145,-0.00004618,0.00004056,-0.00001779,
 0.00007214,-0.00010010,-0.04578031,0.03231090,-0.00010346,0.00005762,-
 0.00005633,0.00015736,-0.00004863,0.00058412,0.00005531,-0.00003109,-0
 .00000326,0.00042971,-0.00018929,0.00023850,0.00013761,-0.00008431,-0.
 00035342,0.00109966,-0.00062667,0.00171534,-0.00001235,-0.00003410,-0.
 00018576,-0.00832568,0.00420217,0.00656307,0.00468228,-0.00230751,-0.0
 0537867,-0.16581259,0.06799990,-0.44352639,0.00000743,-0.00000329,0.00
 001244,0.00001955,-0.00002005,0.00000559,0.00003085,-0.00000440,0.0000
 0636,0.00001422,-0.00000762,0.00000925,-0.00001095,0.00008796,-0.00016
 962,-0.00008520,-0.00005076,-0.00016469,-0.00002772,0.00001178,0.00000
 344,0.16774396,-0.06895170,0.44070002\\-0.00003455,0.00001256,-0.00002
 331,0.00008183,-0.00004675,-0.00022044,-0.00027058,0.00012583,0.000065
 64,0.00025759,-0.00012041,-0.00004177,-0.00002265,0.00001053,-0.000013
 93,-0.00006313,0.00007560,0.00019431,0.00003859,-0.00000396,0.00007837
 ,0.00008723,-0.00020353,-0.00019976,-0.00004181,0.00008516,0.00014419,
 -0.00005788,0.00007316,-0.00001615,-0.00001170,0.00000554,-0.00000926,
 -0.00000317,-0.00000011,0.00000625,-0.00000248,0.00000205,0.00000505,0
 .00003224,-0.00001445,-0.00000702,0.00000378,-0.00000480,0.00000724,0.
 00000886,-0.00000001,0.00000711,-0.00000671,0.00000449,0.00000061,0.00
 000453,-0.00000091,0.00002286\\\@
 The archive entry for this job was punched.


 DO YOU KNOW THAT THE LETTERS IN "EPISCOPAL", WHEN
 REARRANGED, SPELL "PEPSI COLA"?
 Job cpu time:       0 days 13 hours 25 minutes 35.3 seconds.
 Elapsed time:       0 days  0 hours 40 minutes 17.6 seconds.
 File lengths (MBytes):  RWF=    493 Int=      0 D2E=      0 Chk=     33 Scr=      1
 Normal termination of Gaussian 16 at Tue Mar  4 18:37:18 2025.
