 Entering Gaussian System, Link 0=g16
 Initial command:
 /usr/local/gaussian16c01/g16/l1.exe "/scr/dhuang/Gau-351286.inp" -scrdir="/scr/dhuang/"
 Entering Link 1 = /usr/local/gaussian16c01/g16/l1.exe PID=    351288.
  
 Copyright (c) 1988-2019, Gaussian, Inc.  All Rights Reserved.
  
 This is part of the Gaussian(R) 16 program.  It is based on
 the Gaussian(R) 09 system (copyright 2009, Gaussian, Inc.),
 the Gaussian(R) 03 system (copyright 2003, Gaussian, Inc.),
 the Gaussian(R) 98 system (copyright 1998, Gaussian, Inc.),
 the Gaussian(R) 94 system (copyright 1995, Gaussian, Inc.),
 the Gaussian 92(TM) system (copyright 1992, Gaussian, Inc.),
 the Gaussian 90(TM) system (copyright 1990, Gaussian, Inc.),
 the Gaussian 88(TM) system (copyright 1988, Gaussian, Inc.),
 the Gaussian 86(TM) system (copyright 1986, Carnegie Mellon
 University), and the Gaussian 82(TM) system (copyright 1983,
 Carnegie Mellon University). Gaussian is a federally registered
 trademark of Gaussian, Inc.
  
 This software contains proprietary and confidential information,
 including trade secrets, belonging to Gaussian, Inc.
  
 This software is provided under written license and may be
 used, copied, transmitted, or stored only in accord with that
 written license.
  
 The following legend is applicable only to US Government
 contracts under FAR:
  
                    RESTRICTED RIGHTS LEGEND
  
 Use, reproduction and disclosure by the US Government is
 subject to restrictions as set forth in subparagraphs (a)
 and (c) of the Commercial Computer Software - Restricted
 Rights clause in FAR 52.227-19.
  
 Gaussian, Inc.
 340 Quinnipiac St., Bldg. 40, Wallingford CT 06492
  
  
 ---------------------------------------------------------------
 Warning -- This program may not be used in any manner that
 competes with the business of Gaussian, Inc. or will provide
 assistance to any competitor of Gaussian, Inc.  The licensee
 of this program is prohibited from giving any competitor of
 Gaussian, Inc. access to this program.  By using this program,
 the user acknowledges that Gaussian, Inc. is engaged in the
 business of creating and licensing software in the field of
 computational chemistry and represents and warrants to the
 licensee that it is not a competitor of Gaussian, Inc. and that
 it will not use this program in any manner prohibited above.
 ---------------------------------------------------------------
  

 Cite this work as:
 Gaussian 16, Revision C.01,
 M. J. Frisch, G. W. Trucks, H. B. Schlegel, G. E. Scuseria, 
 M. A. Robb, J. R. Cheeseman, G. Scalmani, V. Barone, 
 G. A. Petersson, H. Nakatsuji, X. Li, M. Caricato, A. V. Marenich, 
 J. Bloino, B. G. Janesko, R. Gomperts, B. Mennucci, H. P. Hratchian, 
 J. V. Ortiz, A. F. Izmaylov, J. L. Sonnenberg, D. Williams-Young, 
 F. Ding, F. Lipparini, F. Egidi, J. Goings, B. Peng, A. Petrone, 
 T. Henderson, D. Ranasinghe, V. G. Zakrzewski, J. Gao, N. Rega, 
 G. Zheng, W. Liang, M. Hada, M. Ehara, K. Toyota, R. Fukuda, 
 J. Hasegawa, M. Ishida, T. Nakajima, Y. Honda, O. Kitao, H. Nakai, 
 T. Vreven, K. Throssell, J. A. Montgomery, Jr., J. E. Peralta, 
 F. Ogliaro, M. J. Bearpark, J. J. Heyd, E. N. Brothers, K. N. Kudin, 
 V. N. Staroverov, T. A. Keith, R. Kobayashi, J. Normand, 
 K. Raghavachari, A. P. Rendell, J. C. Burant, S. S. Iyengar, 
 J. Tomasi, M. Cossi, J. M. Millam, M. Klene, C. Adamo, R. Cammi, 
 J. W. Ochterski, R. L. Martin, K. Morokuma, O. Farkas, 
 J. B. Foresman, and D. J. Fox, Gaussian, Inc., Wallingford CT, 2019.
 
 ******************************************
 Gaussian 16:  ES64L-G16RevC.01  3-Jul-2019
                 4-Mar-2025 
 ******************************************
 %nprocshared=20
 Will use up to   20 processors via shared memory.
 %mem=10000MW
 %chk=6.chk
 ------------------------------------
 # opt freq m062x/aug-cc-pvtz pop=nbo
 ------------------------------------
 1/18=20,19=15,26=3,38=1/1,3;
 2/9=110,12=2,17=6,18=5,40=1/2;
 3/5=16,6=1,7=10,11=2,25=1,30=1,71=1,74=-55/1,2,3;
 4//1;
 5/5=2,38=5/2;
 6/7=2,8=2,9=2,10=2,28=1,40=1/1,7;
 7//1,2,3,16;
 1/18=20,19=15,26=3/3(2);
 2/9=110/2;
 99//99;
 2/9=110/2;
 3/5=16,6=1,7=10,11=2,25=1,30=1,71=1,74=-55/1,2,3;
 4/5=5,16=3,69=1/1;
 5/5=2,38=5/2;
 7//1,2,3,16;
 1/18=20,19=15,26=3/3(-5);
 2/9=110/2;
 6/7=2,8=2,9=2,10=2,19=2,28=1,40=1/1,7;
 99/9=1/99;
 -
 6
 -
 Symbolic Z-matrix:
 Charge =  0 Multiplicity = 1
 C                     1.11423  -2.62832   3.07334 
 N                    -0.0707   -1.93694   2.53087 
 C                    -0.19872  -1.82212   1.27115 
 C                    -1.3533   -1.16103   1.11585 
 C                    -1.80139  -0.94823   2.36186 
 N                    -0.98596  -1.43925   3.19776 
 C                    -1.9458   -0.7855   -0.0457 
 O                    -1.41849  -1.04908  -1.10965 
 O                    -3.1254   -0.1164   -0.0264 
 H                     1.79552  -3.02124   2.28571 
 H                     1.69779  -1.92636   3.71168 
 H                     0.79085  -3.48791   3.70356 
 H                     0.51216  -2.20108   0.52968 
 H                    -2.72195  -0.4355    2.66838 
 H                    -3.40825   0.07479  -0.93457 
 

 GradGradGradGradGradGradGradGradGradGradGradGradGradGradGradGradGradGrad
 Berny optimization.
 Initialization pass.
                           ----------------------------
                           !    Initial Parameters    !
                           ! (Angstroms and Degrees)  !
 --------------------------                            --------------------------
 ! Name  Definition              Value          Derivative Info.                !
 --------------------------------------------------------------------------------
 ! R1    R(1,2)                  1.4752         estimate D2E/DX2                !
 ! R2    R(1,10)                 1.1131         estimate D2E/DX2                !
 ! R3    R(1,11)                 1.1139         estimate D2E/DX2                !
 ! R4    R(1,12)                 1.1138         estimate D2E/DX2                !
 ! R5    R(2,3)                  1.2714         estimate D2E/DX2                !
 ! R6    R(2,6)                  1.237          estimate D2E/DX2                !
 ! R7    R(3,4)                  1.3395         estimate D2E/DX2                !
 ! R8    R(3,13)                 1.0949         estimate D2E/DX2                !
 ! R9    R(4,5)                  1.3411         estimate D2E/DX2                !
 ! R10   R(4,7)                  1.3569         estimate D2E/DX2                !
 ! R11   R(5,6)                  1.2668         estimate D2E/DX2                !
 ! R12   R(5,14)                 1.0974         estimate D2E/DX2                !
 ! R13   R(7,8)                  1.2164         estimate D2E/DX2                !
 ! R14   R(7,9)                  1.3563         estimate D2E/DX2                !
 ! R15   R(9,15)                 0.9702         estimate D2E/DX2                !
 ! A1    A(2,1,10)             113.382          estimate D2E/DX2                !
 ! A2    A(2,1,11)             109.6443         estimate D2E/DX2                !
 ! A3    A(2,1,12)             109.6665         estimate D2E/DX2                !
 ! A4    A(10,1,11)            107.8974         estimate D2E/DX2                !
 ! A5    A(10,1,12)            107.7976         estimate D2E/DX2                !
 ! A6    A(11,1,12)            108.3121         estimate D2E/DX2                !
 ! A7    A(1,2,3)              119.1789         estimate D2E/DX2                !
 ! A8    A(1,2,6)              125.7756         estimate D2E/DX2                !
 ! A9    A(3,2,6)              115.0455         estimate D2E/DX2                !
 ! A10   A(2,3,4)              104.2546         estimate D2E/DX2                !
 ! A11   A(2,3,13)             125.0553         estimate D2E/DX2                !
 ! A12   A(4,3,13)             130.6901         estimate D2E/DX2                !
 ! A13   A(3,4,5)              104.9864         estimate D2E/DX2                !
 ! A14   A(3,4,7)              127.7485         estimate D2E/DX2                !
 ! A15   A(5,4,7)              127.265          estimate D2E/DX2                !
 ! A16   A(4,5,6)              109.6632         estimate D2E/DX2                !
 ! A17   A(4,5,14)             127.8731         estimate D2E/DX2                !
 ! A18   A(6,5,14)             122.4637         estimate D2E/DX2                !
 ! A19   A(2,6,5)              106.0503         estimate D2E/DX2                !
 ! A20   A(4,7,8)              119.9665         estimate D2E/DX2                !
 ! A21   A(4,7,9)              120.272          estimate D2E/DX2                !
 ! A22   A(8,7,9)              119.7615         estimate D2E/DX2                !
 ! A23   A(7,9,15)             109.7215         estimate D2E/DX2                !
 ! D1    D(10,1,2,3)            -1.5661         estimate D2E/DX2                !
 ! D2    D(10,1,2,6)           178.4301         estimate D2E/DX2                !
 ! D3    D(11,1,2,3)           119.0867         estimate D2E/DX2                !
 ! D4    D(11,1,2,6)           -60.9171         estimate D2E/DX2                !
 ! D5    D(12,1,2,3)          -122.1071         estimate D2E/DX2                !
 ! D6    D(12,1,2,6)            57.8891         estimate D2E/DX2                !
 ! D7    D(1,2,3,4)            179.9958         estimate D2E/DX2                !
 ! D8    D(1,2,3,13)            -0.0108         estimate D2E/DX2                !
 ! D9    D(6,2,3,4)             -0.0008         estimate D2E/DX2                !
 ! D10   D(6,2,3,13)           179.9926         estimate D2E/DX2                !
 ! D11   D(1,2,6,5)           -179.99           estimate D2E/DX2                !
 ! D12   D(3,2,6,5)              0.0064         estimate D2E/DX2                !
 ! D13   D(2,3,4,5)             -0.0047         estimate D2E/DX2                !
 ! D14   D(2,3,4,7)            179.994          estimate D2E/DX2                !
 ! D15   D(13,3,4,5)          -179.9976         estimate D2E/DX2                !
 ! D16   D(13,3,4,7)             0.0011         estimate D2E/DX2                !
 ! D17   D(3,4,5,6)              0.0088         estimate D2E/DX2                !
 ! D18   D(3,4,5,14)           179.9977         estimate D2E/DX2                !
 ! D19   D(7,4,5,6)           -179.99           estimate D2E/DX2                !
 ! D20   D(7,4,5,14)            -0.0011         estimate D2E/DX2                !
 ! D21   D(3,4,7,8)             -0.0141         estimate D2E/DX2                !
 ! D22   D(3,4,7,9)            179.985          estimate D2E/DX2                !
 ! D23   D(5,4,7,8)            179.9844         estimate D2E/DX2                !
 ! D24   D(5,4,7,9)             -0.0165         estimate D2E/DX2                !
 ! D25   D(4,5,6,2)             -0.0092         estimate D2E/DX2                !
 ! D26   D(14,5,6,2)          -179.9988         estimate D2E/DX2                !
 ! D27   D(4,7,9,15)          -180.0            estimate D2E/DX2                !
 ! D28   D(8,7,9,15)            -0.001          estimate D2E/DX2                !
 --------------------------------------------------------------------------------
 Trust Radius=3.00D-01 FncErr=1.00D-07 GrdErr=1.00D-06 EigMax=2.50D+02 EigMin=1.00D-04
 Number of steps in this run=     76 maximum allowed number of steps=    100.
 GradGradGradGradGradGradGradGradGradGradGradGradGradGradGradGradGradGrad

                          Input orientation:                          
 ---------------------------------------------------------------------
 Center     Atomic      Atomic             Coordinates (Angstroms)
 Number     Number       Type             X           Y           Z
 ---------------------------------------------------------------------
      1          6           0        1.114230   -2.628319    3.073344
      2          7           0       -0.070702   -1.936937    2.530866
      3          6           0       -0.198720   -1.822124    1.271146
      4          6           0       -1.353303   -1.161028    1.115852
      5          6           0       -1.801388   -0.948227    2.361862
      6          7           0       -0.985964   -1.439248    3.197760
      7          6           0       -1.945800   -0.785500   -0.045700
      8          8           0       -1.418492   -1.049079   -1.109647
      9          8           0       -3.125400   -0.116400   -0.026400
     10          1           0        1.795515   -3.021238    2.285711
     11          1           0        1.697789   -1.926356    3.711678
     12          1           0        0.790854   -3.487908    3.703562
     13          1           0        0.512160   -2.201077    0.529678
     14          1           0       -2.721952   -0.435505    2.668379
     15          1           0       -3.408254    0.074785   -0.934567
 ---------------------------------------------------------------------
                    Distance matrix (angstroms):
                    1          2          3          4          5
     1  C    0.000000
     2  N    1.475247   0.000000
     3  C    2.371014   1.271403   0.000000
     4  C    3.474685   2.061399   1.339487   0.000000
     5  C    3.439439   2.000346   2.126476   1.341121   0.000000
     6  N    2.416647   1.236991   2.116173   2.132296   1.266785
     7  C    4.742172   3.388287   2.420942   1.356936   2.417372
     8  O    5.138686   3.982231   2.784531   2.229266   3.494017
     9  O    5.821736   4.380085   3.627475   2.352937   2.854600
    10  H    1.113060   2.172228   2.538541   3.839793   4.152215
    11  H    1.113896   2.126497   3.092541   4.078382   3.875949
    12  H    1.113840   2.126735   3.109781   4.087545   3.869090
    13  H    2.648634   2.101011   1.094866   2.214780   3.206093
    14  H    4.437197   3.049973   3.200261   2.193154   1.097394
    15  H    6.619892   5.214931   4.331805   3.155039   3.807232
                    6          7          8          9         10
     6  N    0.000000
     7  C    3.445099   0.000000
     8  O    4.346616   1.216351   0.000000
     9  O    4.089294   1.356290   2.226398   0.000000
    10  H    3.327334   4.942817   5.074220   6.164361   0.000000
    11  H    2.775593   5.356788   5.807408   6.364929   1.800472
    12  H    2.758609   5.371149   5.830615   6.373125   1.799285
    13  H    3.153319   2.894215   2.782427   4.229295   2.324503
    14  H    2.073982   2.844492   4.043385   2.743434   5.219191
    15  H    5.023536   1.915449   2.291915   0.970219   6.858189
                   11         12         13         14         15
    11  H    0.000000
    12  H    1.805835   0.000000
    13  H    3.406803   3.436152   0.000000
    14  H    4.779667   4.767449   4.260371   0.000000
    15  H    7.187755   7.199828   4.763738   3.703056   0.000000
 Stoichiometry    C5H6N2O2
 Framework group  C1[X(C5H6N2O2)]
 Deg. of freedom    39
 Full point group                 C1      NOp   1
 Largest Abelian subgroup         C1      NOp   1
 Largest concise Abelian subgroup C1      NOp   1
                         Standard orientation:                         
 ---------------------------------------------------------------------
 Center     Atomic      Atomic             Coordinates (Angstroms)
 Number     Number       Type             X           Y           Z
 ---------------------------------------------------------------------
      1          6           0       -3.003609   -0.582130   -0.000094
      2          7           0       -1.650711    0.006104    0.000025
      3          6           0       -0.639638   -0.764737   -0.000091
      4          6           0        0.409767    0.067714   -0.000031
      5          6           0       -0.123654    1.298188    0.000014
      6          7           0       -1.387692    1.214809    0.000166
      7          6           0        1.727377   -0.256603    0.000005
      8          8           0        2.065476   -1.425020    0.000242
      9          8           0        2.671236    0.717386   -0.000242
     10          1           0       -3.001485   -1.694833   -0.028204
     11          1           0       -3.550385   -0.263911    0.916714
     12          1           0       -3.569650   -0.220206   -0.888490
     13          1           0       -0.682938   -1.858746   -0.000107
     14          1           0        0.403169    2.260858    0.000104
     15          1           0        3.554949    0.316917   -0.000176
 ---------------------------------------------------------------------
 Rotational constants (GHZ):           4.7406072           1.1274706           0.9162702
 Standard basis: Aug-CC-pVTZ (5D, 7F)
 There are   645 symmetry adapted cartesian basis functions of A   symmetry.
 There are   552 symmetry adapted basis functions of A   symmetry.
   552 basis functions,   810 primitive gaussians,   645 cartesian basis functions
    33 alpha electrons       33 beta electrons
       nuclear repulsion energy       445.5059676612 Hartrees.
 NAtoms=   15 NActive=   15 NUniq=   15 SFac= 1.00D+00 NAtFMM=   60 NAOKFM=F Big=F
 Integral buffers will be    131072 words long.
 Raffenetti 2 integral format.
 Two-electron integral symmetry is turned on.
 One-electron integrals computed using PRISM.
 NBasis=   552 RedAO= T EigKep=  2.29D-06  NBF=   552
 NBsUse=   552 1.00D-06 EigRej= -1.00D+00 NBFU=   552
 ExpMin= 2.53D-02 ExpMax= 1.53D+04 ExpMxC= 5.22D+02 IAcc=3 IRadAn=         5 AccDes= 0.00D+00
 Harris functional with IExCor= 1009 and IRadAn=       5 diagonalized for initial guess.
 HarFok:  IExCor= 1009 AccDes= 0.00D+00 IRadAn=         5 IDoV= 1 UseB2=F ITyADJ=14
 ICtDFT=  3500011 ScaDFX=  1.000000  1.000000  1.000000  1.000000
 FoFCou: FMM=F IPFlag=           0 FMFlag=      100000 FMFlg1=           0
         NFxFlg=           0 DoJE=T BraDBF=F KetDBF=T FulRan=T
         wScrn=  0.000000 ICntrl=       500 IOpCl=  0 I1Cent=   200000004 NGrid=           0
         NMat0=    1 NMatS0=      1 NMatT0=    0 NMatD0=    1 NMtDS0=    0 NMtDT0=    0
 Petite list used in FoFCou.
 Requested convergence on RMS density matrix=1.00D-08 within 128 cycles.
 Requested convergence on MAX density matrix=1.00D-06.
 Requested convergence on             energy=1.00D-06.
 No special actions if energy rises.
 SCF Done:  E(RM062X) =  -454.048982617     A.U. after   14 cycles
            NFock= 14  Conv=0.34D-08     -V/T= 2.0027

 **********************************************************************

            Population analysis using the SCF Density.

 **********************************************************************

 Orbital symmetries:
       Occupied  (A) (A) (A) (A) (A) (A) (A) (A) (A) (A) (A) (A)
                 (A) (A) (A) (A) (A) (A) (A) (A) (A) (A) (A) (A)
                 (A) (A) (A) (A) (A) (A) (A) (A) (A)
       Virtual   (A) (A) (A) (A) (A) (A) (A) (A) (A) (A) (A) (A)
                 (A) (A) (A) (A) (A) (A) (A) (A) (A) (A) (A) (A)
                 (A) (A) (A) (A) (A) (A) (A) (A) (A) (A) (A) (A)
                 (A) (A) (A) (A) (A) (A) (A) (A) (A) (A) (A) (A)
                 (A) (A) (A) (A) (A) (A) (A) (A) (A) (A) (A) (A)
                 (A) (A) (A) (A) (A) (A) (A) (A) (A) (A) (A) (A)
                 (A) (A) (A) (A) (A) (A) (A) (A) (A) (A) (A) (A)
                 (A) (A) (A) (A) (A) (A) (A) (A) (A) (A) (A) (A)
                 (A) (A) (A) (A) (A) (A) (A) (A) (A) (A) (A) (A)
                 (A) (A) (A) (A) (A) (A) (A) (A) (A) (A) (A) (A)
                 (A) (A) (A) (A) (A) (A) (A) (A) (A) (A) (A) (A)
                 (A) (A) (A) (A) (A) (A) (A) (A) (A) (A) (A) (A)
                 (A) (A) (A) (A) (A) (A) (A) (A) (A) (A) (A) (A)
                 (A) (A) (A) (A) (A) (A) (A) (A) (A) (A) (A) (A)
                 (A) (A) (A) (A) (A) (A) (A) (A) (A) (A) (A) (A)
                 (A) (A) (A) (A) (A) (A) (A) (A) (A) (A) (A) (A)
                 (A) (A) (A) (A) (A) (A) (A) (A) (A) (A) (A) (A)
                 (A) (A) (A) (A) (A) (A) (A) (A) (A) (A) (A) (A)
                 (A) (A) (A) (A) (A) (A) (A) (A) (A) (A) (A) (A)
                 (A) (A) (A) (A) (A) (A) (A) (A) (A) (A) (A) (A)
                 (A) (A) (A) (A) (A) (A) (A) (A) (A) (A) (A) (A)
                 (A) (A) (A) (A) (A) (A) (A) (A) (A) (A) (A) (A)
                 (A) (A) (A) (A) (A) (A) (A) (A) (A) (A) (A) (A)
                 (A) (A) (A) (A) (A) (A) (A) (A) (A) (A) (A) (A)
                 (A) (A) (A) (A) (A) (A) (A) (A) (A) (A) (A) (A)
                 (A) (A) (A) (A) (A) (A) (A) (A) (A) (A) (A) (A)
                 (A) (A) (A) (A) (A) (A) (A) (A) (A) (A) (A) (A)
                 (A) (A) (A) (A) (A) (A) (A) (A) (A) (A) (A) (A)
                 (A) (A) (A) (A) (A) (A) (A) (A) (A) (A) (A) (A)
                 (A) (A) (A) (A) (A) (A) (A) (A) (A) (A) (A) (A)
                 (A) (A) (A) (A) (A) (A) (A) (A) (A) (A) (A) (A)
                 (A) (A) (A) (A) (A) (A) (A) (A) (A) (A) (A) (A)
                 (A) (A) (A) (A) (A) (A) (A) (A) (A) (A) (A) (A)
                 (A) (A) (A) (A) (A) (A) (A) (A) (A) (A) (A) (A)
                 (A) (A) (A) (A) (A) (A) (A) (A) (A) (A) (A) (A)
                 (A) (A) (A) (A) (A) (A) (A) (A) (A) (A) (A) (A)
                 (A) (A) (A) (A) (A) (A) (A) (A) (A) (A) (A) (A)
                 (A) (A) (A) (A) (A) (A) (A) (A) (A) (A) (A) (A)
                 (A) (A) (A) (A) (A) (A) (A) (A) (A) (A) (A) (A)
                 (A) (A) (A) (A) (A) (A) (A) (A) (A) (A) (A) (A)
                 (A) (A) (A) (A) (A) (A) (A) (A) (A) (A) (A) (A)
                 (A) (A) (A) (A) (A) (A) (A) (A) (A) (A) (A) (A)
                 (A) (A) (A) (A) (A) (A) (A) (A) (A) (A) (A) (A)
                 (A) (A) (A)
 The electronic state is 1-A.
 Alpha  occ. eigenvalues --  -19.66678 -19.59881 -14.85361 -14.76804 -10.66610
 Alpha  occ. eigenvalues --  -10.60794 -10.57936 -10.55797 -10.52838  -1.26053
 Alpha  occ. eigenvalues --   -1.22826  -1.12784  -0.98399  -0.94166  -0.83744
 Alpha  occ. eigenvalues --   -0.78010  -0.70058  -0.66331  -0.64406  -0.60766
 Alpha  occ. eigenvalues --   -0.57586  -0.56075  -0.53499  -0.51912  -0.50811
 Alpha  occ. eigenvalues --   -0.49087  -0.47524  -0.46767  -0.39699  -0.38286
 Alpha  occ. eigenvalues --   -0.34509  -0.33859  -0.32844
 Alpha virt. eigenvalues --   -0.01170   0.00002   0.00101   0.01100   0.01811
 Alpha virt. eigenvalues --    0.01918   0.02826   0.04063   0.04522   0.05091
 Alpha virt. eigenvalues --    0.05444   0.06338   0.06952   0.07549   0.07606
 Alpha virt. eigenvalues --    0.07830   0.08254   0.08992   0.09329   0.09944
 Alpha virt. eigenvalues --    0.10095   0.10920   0.10972   0.11635   0.12316
 Alpha virt. eigenvalues --    0.13009   0.13965   0.14666   0.15047   0.15631
 Alpha virt. eigenvalues --    0.16501   0.16857   0.17724   0.17819   0.18090
 Alpha virt. eigenvalues --    0.18971   0.19057   0.19354   0.19755   0.20383
 Alpha virt. eigenvalues --    0.20478   0.21852   0.22501   0.23028   0.23748
 Alpha virt. eigenvalues --    0.24286   0.25031   0.25102   0.25878   0.26017
 Alpha virt. eigenvalues --    0.26662   0.27255   0.27278   0.28166   0.29392
 Alpha virt. eigenvalues --    0.30099   0.30398   0.31202   0.31246   0.32326
 Alpha virt. eigenvalues --    0.32611   0.32927   0.33239   0.34397   0.34528
 Alpha virt. eigenvalues --    0.35027   0.35420   0.36199   0.36254   0.37099
 Alpha virt. eigenvalues --    0.37220   0.38171   0.39020   0.39083   0.39290
 Alpha virt. eigenvalues --    0.39948   0.41090   0.41166   0.41843   0.42088
 Alpha virt. eigenvalues --    0.42879   0.43599   0.43700   0.44310   0.44554
 Alpha virt. eigenvalues --    0.45935   0.46592   0.47557   0.49813   0.50382
 Alpha virt. eigenvalues --    0.50637   0.51455   0.51710   0.53270   0.53468
 Alpha virt. eigenvalues --    0.54965   0.55144   0.55943   0.57353   0.57573
 Alpha virt. eigenvalues --    0.57749   0.59607   0.59777   0.61021   0.62126
 Alpha virt. eigenvalues --    0.62465   0.62882   0.63372   0.64569   0.65452
 Alpha virt. eigenvalues --    0.66273   0.66678   0.66960   0.67923   0.69578
 Alpha virt. eigenvalues --    0.70996   0.71242   0.72755   0.72924   0.73759
 Alpha virt. eigenvalues --    0.74514   0.74744   0.75423   0.76063   0.76302
 Alpha virt. eigenvalues --    0.76752   0.77200   0.78461   0.78967   0.79659
 Alpha virt. eigenvalues --    0.80040   0.80414   0.80575   0.81478   0.82311
 Alpha virt. eigenvalues --    0.82391   0.83838   0.84287   0.85052   0.86534
 Alpha virt. eigenvalues --    0.86568   0.86856   0.88459   0.89150   0.89669
 Alpha virt. eigenvalues --    0.90367   0.90420   0.91916   0.92258   0.92292
 Alpha virt. eigenvalues --    0.93941   0.94393   0.95716   0.96141   0.96716
 Alpha virt. eigenvalues --    0.98655   0.98936   0.99588   1.01556   1.01841
 Alpha virt. eigenvalues --    1.01939   1.02371   1.03394   1.04877   1.05205
 Alpha virt. eigenvalues --    1.05385   1.05648   1.06530   1.06957   1.07726
 Alpha virt. eigenvalues --    1.08443   1.09905   1.10082   1.10770   1.11870
 Alpha virt. eigenvalues --    1.13226   1.13391   1.15107   1.16026   1.17307
 Alpha virt. eigenvalues --    1.18172   1.19060   1.19394   1.19771   1.21059
 Alpha virt. eigenvalues --    1.23037   1.24625   1.25539   1.26752   1.27395
 Alpha virt. eigenvalues --    1.28419   1.29596   1.31028   1.31186   1.32803
 Alpha virt. eigenvalues --    1.33056   1.33661   1.33763   1.35784   1.37064
 Alpha virt. eigenvalues --    1.37196   1.39180   1.39795   1.40223   1.41903
 Alpha virt. eigenvalues --    1.41981   1.42727   1.44123   1.45341   1.46003
 Alpha virt. eigenvalues --    1.46610   1.47106   1.47410   1.49415   1.50596
 Alpha virt. eigenvalues --    1.51569   1.52921   1.53289   1.53914   1.55781
 Alpha virt. eigenvalues --    1.56369   1.57165   1.58751   1.59643   1.60703
 Alpha virt. eigenvalues --    1.60910   1.62883   1.64126   1.66420   1.66574
 Alpha virt. eigenvalues --    1.67785   1.68238   1.69697   1.69866   1.70711
 Alpha virt. eigenvalues --    1.72783   1.73751   1.76572   1.77457   1.78022
 Alpha virt. eigenvalues --    1.79729   1.80215   1.81186   1.82196   1.84350
 Alpha virt. eigenvalues --    1.84855   1.88345   1.88907   1.89416   1.89833
 Alpha virt. eigenvalues --    1.91861   1.92141   1.95705   1.96450   1.96796
 Alpha virt. eigenvalues --    1.97990   1.99165   1.99622   2.01758   2.02368
 Alpha virt. eigenvalues --    2.03576   2.06106   2.08064   2.09504   2.11069
 Alpha virt. eigenvalues --    2.11765   2.13419   2.15453   2.15877   2.17397
 Alpha virt. eigenvalues --    2.19039   2.20568   2.20961   2.22932   2.23363
 Alpha virt. eigenvalues --    2.24738   2.26469   2.28276   2.29008   2.29424
 Alpha virt. eigenvalues --    2.31626   2.31819   2.34493   2.35012   2.35818
 Alpha virt. eigenvalues --    2.37785   2.39881   2.41839   2.41888   2.44302
 Alpha virt. eigenvalues --    2.46473   2.49332   2.49800   2.50101   2.53227
 Alpha virt. eigenvalues --    2.55460   2.56550   2.56811   2.57343   2.63402
 Alpha virt. eigenvalues --    2.64536   2.67334   2.70553   2.70774   2.73342
 Alpha virt. eigenvalues --    2.73675   2.74480   2.79445   2.81089   2.81349
 Alpha virt. eigenvalues --    2.82697   2.84957   2.87522   2.90476   2.94821
 Alpha virt. eigenvalues --    3.00291   3.02282   3.04224   3.05425   3.06887
 Alpha virt. eigenvalues --    3.09103   3.09833   3.10520   3.12814   3.16030
 Alpha virt. eigenvalues --    3.16136   3.17049   3.18467   3.19085   3.22262
 Alpha virt. eigenvalues --    3.23481   3.25870   3.26237   3.26917   3.29339
 Alpha virt. eigenvalues --    3.30430   3.32755   3.34701   3.35162   3.35828
 Alpha virt. eigenvalues --    3.38193   3.38705   3.39837   3.41261   3.43900
 Alpha virt. eigenvalues --    3.44318   3.44712   3.50043   3.50957   3.52988
 Alpha virt. eigenvalues --    3.53492   3.53907   3.54228   3.58745   3.60088
 Alpha virt. eigenvalues --    3.61223   3.61682   3.62582   3.64278   3.65318
 Alpha virt. eigenvalues --    3.67975   3.68351   3.69978   3.71813   3.73137
 Alpha virt. eigenvalues --    3.74616   3.75661   3.78044   3.78939   3.79912
 Alpha virt. eigenvalues --    3.81818   3.83033   3.84773   3.85678   3.88683
 Alpha virt. eigenvalues --    3.90733   3.91963   3.92553   3.93960   3.94661
 Alpha virt. eigenvalues --    3.96198   3.96418   3.98313   3.99909   4.01741
 Alpha virt. eigenvalues --    4.02893   4.04990   4.06422   4.10520   4.12699
 Alpha virt. eigenvalues --    4.13072   4.14119   4.15815   4.18578   4.21054
 Alpha virt. eigenvalues --    4.22976   4.25233   4.27921   4.29297   4.31821
 Alpha virt. eigenvalues --    4.33658   4.34069   4.35876   4.36862   4.37387
 Alpha virt. eigenvalues --    4.40591   4.43398   4.44739   4.46613   4.49301
 Alpha virt. eigenvalues --    4.52680   4.53761   4.54585   4.55271   4.57555
 Alpha virt. eigenvalues --    4.59304   4.60226   4.62135   4.64240   4.64383
 Alpha virt. eigenvalues --    4.66945   4.70545   4.70957   4.72471   4.73290
 Alpha virt. eigenvalues --    4.75297   4.76252   4.80665   4.83873   4.85592
 Alpha virt. eigenvalues --    4.87126   4.90451   4.92232   4.93639   5.00220
 Alpha virt. eigenvalues --    5.02448   5.04318   5.04801   5.05691   5.09497
 Alpha virt. eigenvalues --    5.10199   5.12274   5.14332   5.15757   5.17862
 Alpha virt. eigenvalues --    5.19063   5.27041   5.31005   5.31977   5.34011
 Alpha virt. eigenvalues --    5.36774   5.41155   5.41781   5.43110   5.47363
 Alpha virt. eigenvalues --    5.48569   5.52000   5.58974   5.62424   5.63698
 Alpha virt. eigenvalues --    5.64868   5.67488   5.73633   5.75535   5.75731
 Alpha virt. eigenvalues --    5.76252   5.85614   5.89244   5.94044   5.99710
 Alpha virt. eigenvalues --    6.05656   6.08585   6.14140   6.15287   6.21647
 Alpha virt. eigenvalues --    6.23379   6.23450   6.26371   6.30616   6.37083
 Alpha virt. eigenvalues --    6.37563   6.37697   6.42572   6.45578   6.48562
 Alpha virt. eigenvalues --    6.55080   6.56906   6.62556   6.67982   6.70841
 Alpha virt. eigenvalues --    6.75580   6.77298   6.79532   6.83482   6.83934
 Alpha virt. eigenvalues --    6.86143   6.88300   6.91219   6.99032   7.07520
 Alpha virt. eigenvalues --    7.08843   7.13788   7.20140   7.33792   7.38341
 Alpha virt. eigenvalues --    7.52372   7.63259   7.64196   7.85810   8.05714
 Alpha virt. eigenvalues --   15.40137  15.93129  16.87258  17.70900  18.39164
 Alpha virt. eigenvalues --   18.82718  19.66706  20.44327  21.01083
          Condensed to atoms (all electrons):
               1          2          3          4          5          6
     1  C    5.894093   0.428075  -0.345716   0.017321   0.001497  -0.185507
     2  N    0.428075   8.645033   0.910328  -0.485717  -0.207531  -3.143616
     3  C   -0.345716   0.910328   8.289238  -0.889216  -0.125342  -0.848042
     4  C    0.017321  -0.485717  -0.889216   6.308840  -0.158632   0.194519
     5  C    0.001497  -0.207531  -0.125342  -0.158632   7.325072  -0.012223
     6  N   -0.185507  -3.143616  -0.848042   0.194519  -0.012223  12.416916
     7  C    0.027615   0.078626   0.040940  -0.558478  -0.922617   0.129404
     8  O   -0.008961  -0.043822   0.000067  -0.142077   0.103585  -0.017568
     9  O   -0.004113  -0.028433   0.074167  -0.012392  -0.008828  -0.000407
    10  H    0.348188   0.069673   0.048813  -0.026606   0.006037  -0.055748
    11  H    0.369461  -0.057894  -0.005248   0.003844  -0.001014   0.035250
    12  H    0.369768  -0.065712  -0.007183   0.003101  -0.001148   0.048052
    13  H   -0.070914  -0.089550   0.270404  -0.132225  -0.020192  -0.125497
    14  H   -0.005009   0.029854   0.042226  -0.111378   0.352303  -0.198529
    15  H    0.000857   0.008834  -0.014649  -0.028216  -0.014964   0.000553
               7          8          9         10         11         12
     1  C    0.027615  -0.008961  -0.004113   0.348188   0.369461   0.369768
     2  N    0.078626  -0.043822  -0.028433   0.069673  -0.057894  -0.065712
     3  C    0.040940   0.000067   0.074167   0.048813  -0.005248  -0.007183
     4  C   -0.558478  -0.142077  -0.012392  -0.026606   0.003844   0.003101
     5  C   -0.922617   0.103585  -0.008828   0.006037  -0.001014  -0.001148
     6  N    0.129404  -0.017568  -0.000407  -0.055748   0.035250   0.048052
     7  C    7.185275  -0.047863  -0.077884   0.000330  -0.000098   0.000043
     8  O   -0.047863   9.200014  -0.052732  -0.001837   0.000000  -0.000003
     9  O   -0.077884  -0.052732   8.552528  -0.000129  -0.000051  -0.000040
    10  H    0.000330  -0.001837  -0.000129   0.383057   0.001140  -0.001400
    11  H   -0.000098   0.000000  -0.000051   0.001140   0.332193   0.009478
    12  H    0.000043  -0.000003  -0.000040  -0.001400   0.009478   0.335310
    13  H    0.050947   0.022440   0.004763  -0.035068   0.000404  -0.000054
    14  H   -0.057544   0.005567  -0.017172   0.000025  -0.000106  -0.000214
    15  H    0.092048  -0.109820   0.150697   0.000173  -0.000017  -0.000015
              13         14         15
     1  C   -0.070914  -0.005009   0.000857
     2  N   -0.089550   0.029854   0.008834
     3  C    0.270404   0.042226  -0.014649
     4  C   -0.132225  -0.111378  -0.028216
     5  C   -0.020192   0.352303  -0.014964
     6  N   -0.125497  -0.198529   0.000553
     7  C    0.050947  -0.057544   0.092048
     8  O    0.022440   0.005567  -0.109820
     9  O    0.004763  -0.017172   0.150697
    10  H   -0.035068   0.000025   0.000173
    11  H    0.000404  -0.000106  -0.000017
    12  H   -0.000054  -0.000214  -0.000015
    13  H    0.561020   0.008289  -0.001169
    14  H    0.008289   0.398501  -0.001652
    15  H   -0.001169  -0.001652   0.625063
 Mulliken charges:
               1
     1  C   -0.836655
     2  N    0.951851
     3  C   -1.440788
     4  C    2.017312
     5  C   -0.316003
     6  N   -1.237555
     7  C    0.059255
     8  O   -0.906989
     9  O   -0.579974
    10  H    0.263351
    11  H    0.312658
    12  H    0.310018
    13  H    0.556403
    14  H    0.554839
    15  H    0.292277
 Sum of Mulliken charges =   0.00000
 Mulliken charges with hydrogens summed into heavy atoms:
               1
     1  C    0.049372
     2  N    0.951851
     3  C   -0.884385
     4  C    2.017312
     5  C    0.238836
     6  N   -1.237555
     7  C    0.059255
     8  O   -0.906989
     9  O   -0.287697
 Electronic spatial extent (au):  <R**2>=           1207.4669
 Charge=              0.0000 electrons
 Dipole moment (field-independent basis, Debye):
    X=             -2.5038    Y=             -0.6469    Z=             -0.0030  Tot=              2.5860
 Quadrupole moment (field-independent basis, Debye-Ang):
   XX=            -41.2517   YY=            -55.8927   ZZ=            -52.1871
   XY=             10.5884   XZ=              0.0139   YZ=              0.0060
 Traceless Quadrupole moment (field-independent basis, Debye-Ang):
   XX=              8.5255   YY=             -6.1155   ZZ=             -2.4100
   XY=             10.5884   XZ=              0.0139   YZ=              0.0060
 Octapole moment (field-independent basis, Debye-Ang**2):
  XXX=             15.0744  YYY=             -0.8171  ZZZ=              0.0592  XYY=             -6.5493
  XXY=             -4.9271  XXZ=             -0.0774  XZZ=              2.0685  YZZ=             -0.9568
  YYZ=             -0.0642  XYZ=              0.0053
 Hexadecapole moment (field-independent basis, Debye-Ang**3):
 XXXX=           -898.8131 YYYY=           -314.1147 ZZZZ=            -58.3457 XXXY=             56.9612
 XXXZ=              0.3571 YYYX=             38.9846 YYYZ=              0.1486 ZZZX=             -0.2011
 ZZZY=             -0.0458 XXYY=           -284.7365 XXZZ=           -196.7602 YYZZ=            -67.4112
 XXYZ=             -0.0672 YYXZ=              0.1907 ZZXY=             -1.0643
 N-N= 4.455059676612D+02 E-N=-1.952761028941D+03  KE= 4.528252708272D+02
 ******************************Gaussian NBO Version 3.1******************************
             N A T U R A L   A T O M I C   O R B I T A L   A N D
          N A T U R A L   B O N D   O R B I T A L   A N A L Y S I S
 ******************************Gaussian NBO Version 3.1******************************
       /RESON  / : Allow strongly delocalized NBO set

 Analyzing the SCF density

 Job title: 6                                                               

 Storage needed:    916440 in NPA,   1220743 in NBO (********** available)
 GSVD:  LWork=       -2616 too small for GESVD, short by      613746 words or      613746 for optimal perf.


 NATURAL POPULATIONS:  Natural atomic orbital occupancies 
                                                          
   NAO  Atom  No  lang   Type(AO)    Occupancy      Energy
 ----------------------------------------------------------
     1    C    1  S      Cor( 1S)     1.99943     -10.48068
     2    C    1  S      Val( 2S)     1.09984      -0.34632
     3    C    1  S      Ryd( 3S)     0.00062       1.11128
     4    C    1  S      Ryd( 5S)     0.00008       3.30882
     5    C    1  S      Ryd( 4S)     0.00001       2.98382
     6    C    1  px     Val( 2p)     0.89458      -0.11433
     7    C    1  px     Ryd( 4p)     0.00123       1.17491
     8    C    1  px     Ryd( 5p)     0.00010       1.54488
     9    C    1  px     Ryd( 3p)     0.00001       1.08739
    10    C    1  py     Val( 2p)     1.15471      -0.15341
    11    C    1  py     Ryd( 4p)     0.00251       1.16776
    12    C    1  py     Ryd( 5p)     0.00009       1.87152
    13    C    1  py     Ryd( 3p)     0.00001       1.12660
    14    C    1  pz     Val( 2p)     1.21983      -0.16758
    15    C    1  pz     Ryd( 4p)     0.00064       1.08990
    16    C    1  pz     Ryd( 5p)     0.00004       1.72356
    17    C    1  pz     Ryd( 3p)     0.00002       0.94778
    18    C    1  dxy    Ryd( 4d)     0.00061       1.91946
    19    C    1  dxy    Ryd( 5d)     0.00005       3.44067
    20    C    1  dxy    Ryd( 3d)     0.00001       1.27815
    21    C    1  dxz    Ryd( 4d)     0.00182       1.54516
    22    C    1  dxz    Ryd( 5d)     0.00006       3.23135
    23    C    1  dxz    Ryd( 3d)     0.00001       1.28245
    24    C    1  dyz    Ryd( 4d)     0.00093       1.59441
    25    C    1  dyz    Ryd( 5d)     0.00001       3.08594
    26    C    1  dyz    Ryd( 3d)     0.00001       1.30548
    27    C    1  dx2y2  Ryd( 4d)     0.00147       1.86816
    28    C    1  dx2y2  Ryd( 5d)     0.00009       3.44577
    29    C    1  dx2y2  Ryd( 3d)     0.00004       1.61759
    30    C    1  dz2    Ryd( 4d)     0.00177       1.81610
    31    C    1  dz2    Ryd( 5d)     0.00004       3.36367
    32    C    1  dz2    Ryd( 3d)     0.00001       1.53076
    33    C    1  f(0)   Ryd( 5f)     0.00000       3.80387
    34    C    1  f(0)   Ryd( 4f)     0.00003       2.12574
    35    C    1  f(C1)  Ryd( 5f)     0.00011       4.09948
    36    C    1  f(C1)  Ryd( 4f)     0.00003       3.39682
    37    C    1  f(S1)  Ryd( 5f)     0.00011       3.88698
    38    C    1  f(S1)  Ryd( 4f)     0.00004       2.98525
    39    C    1  f(C2)  Ryd( 5f)     0.00002       3.81444
    40    C    1  f(C2)  Ryd( 4f)     0.00002       2.26300
    41    C    1  f(S2)  Ryd( 5f)     0.00000       3.75352
    42    C    1  f(S2)  Ryd( 4f)     0.00003       2.62252
    43    C    1  f(C3)  Ryd( 5f)     0.00004       3.97042
    44    C    1  f(C3)  Ryd( 4f)     0.00003       2.56196
    45    C    1  f(S3)  Ryd( 5f)     0.00006       4.03204
    46    C    1  f(S3)  Ryd( 4f)     0.00007       2.68779
 
    47    N    2  S      Cor( 1S)     1.99927     -14.65587
    48    N    2  S      Val( 2S)     1.12774      -0.54208
    49    N    2  S      Ryd( 3S)     0.00285       1.63766
    50    N    2  S      Ryd( 5S)     0.00010       6.75032
    51    N    2  S      Ryd( 4S)     0.00002       5.26778
    52    N    2  px     Val( 2p)     1.30128      -0.31654
    53    N    2  px     Ryd( 4p)     0.00451       2.45489
    54    N    2  px     Ryd( 5p)     0.00011       4.45747
    55    N    2  px     Ryd( 3p)     0.00007       2.19830
    56    N    2  py     Val( 2p)     1.19794      -0.28325
    57    N    2  py     Ryd( 4p)     0.00477       1.77805
    58    N    2  py     Ryd( 5p)     0.00025       3.59478
    59    N    2  py     Ryd( 3p)     0.00006       1.38560
    60    N    2  pz     Val( 2p)     1.46761      -0.32727
    61    N    2  pz     Ryd( 3p)     0.00377       0.87454
    62    N    2  pz     Ryd( 5p)     0.00004       2.86937
    63    N    2  pz     Ryd( 4p)     0.00004       1.06158
    64    N    2  dxy    Ryd( 4d)     0.00363       4.34346
    65    N    2  dxy    Ryd( 5d)     0.00026       4.77212
    66    N    2  dxy    Ryd( 3d)     0.00015       3.36291
    67    N    2  dxz    Ryd( 3d)     0.00081       1.74233
    68    N    2  dxz    Ryd( 5d)     0.00009       3.75537
    69    N    2  dxz    Ryd( 4d)     0.00006       2.84290
    70    N    2  dyz    Ryd( 3d)     0.00187       1.93877
    71    N    2  dyz    Ryd( 5d)     0.00016       3.73039
    72    N    2  dyz    Ryd( 4d)     0.00005       2.71040
    73    N    2  dx2y2  Ryd( 3d)     0.00053       3.44393
    74    N    2  dx2y2  Ryd( 5d)     0.00059       4.81532
    75    N    2  dx2y2  Ryd( 4d)     0.00011       4.15511
    76    N    2  dz2    Ryd( 3d)     0.00181       2.10120
    77    N    2  dz2    Ryd( 4d)     0.00033       4.11591
    78    N    2  dz2    Ryd( 5d)     0.00011       4.67011
    79    N    2  f(0)   Ryd( 4f)     0.00144       1.65213
    80    N    2  f(0)   Ryd( 5f)     0.00014       4.85265
    81    N    2  f(C1)  Ryd( 4f)     0.00143       2.29816
    82    N    2  f(C1)  Ryd( 5f)     0.00010       4.90511
    83    N    2  f(S1)  Ryd( 4f)     0.00121       1.99840
    84    N    2  f(S1)  Ryd( 5f)     0.00013       4.86588
    85    N    2  f(C2)  Ryd( 4f)     0.00038       1.62335
    86    N    2  f(C2)  Ryd( 5f)     0.00007       4.96452
    87    N    2  f(S2)  Ryd( 4f)     0.00054       1.64543
    88    N    2  f(S2)  Ryd( 5f)     0.00005       4.89986
    89    N    2  f(C3)  Ryd( 4f)     0.00125       2.22227
    90    N    2  f(C3)  Ryd( 5f)     0.00023       5.50049
    91    N    2  f(S3)  Ryd( 4f)     0.00085       2.38330
    92    N    2  f(S3)  Ryd( 5f)     0.00016       5.47364
 
    93    C    3  S      Cor( 1S)     1.99900     -10.41644
    94    C    3  S      Val( 2S)     0.90923      -0.14731
    95    C    3  S      Ryd( 4S)     0.00133       2.01927
    96    C    3  S      Ryd( 5S)     0.00016       2.57479
    97    C    3  S      Ryd( 3S)     0.00003       1.44325
    98    C    3  px     Val( 2p)     0.90601      -0.05026
    99    C    3  px     Ryd( 5p)     0.00402       1.65327
   100    C    3  px     Ryd( 4p)     0.00017       1.59993
   101    C    3  px     Ryd( 3p)     0.00009       1.03604
   102    C    3  py     Val( 2p)     1.14399      -0.09177
   103    C    3  py     Ryd( 5p)     0.00342       2.04436
   104    C    3  py     Ryd( 4p)     0.00018       1.71381
   105    C    3  py     Ryd( 3p)     0.00009       1.24080
   106    C    3  pz     Val( 2p)     0.99254      -0.14047
   107    C    3  pz     Ryd( 4p)     0.00174       1.09493
   108    C    3  pz     Ryd( 5p)     0.00013       1.24027
   109    C    3  pz     Ryd( 3p)     0.00004       0.66134
   110    C    3  dxy    Ryd( 4d)     0.00086       3.52664
   111    C    3  dxy    Ryd( 5d)     0.00065       3.76038
   112    C    3  dxy    Ryd( 3d)     0.00005       3.20658
   113    C    3  dxz    Ryd( 3d)     0.00120       1.61042
   114    C    3  dxz    Ryd( 5d)     0.00003       2.63914
   115    C    3  dxz    Ryd( 4d)     0.00005       2.42802
   116    C    3  dyz    Ryd( 3d)     0.00027       1.68178
   117    C    3  dyz    Ryd( 5d)     0.00026       2.69838
   118    C    3  dyz    Ryd( 4d)     0.00004       2.18876
   119    C    3  dx2y2  Ryd( 3d)     0.00092       2.41563
   120    C    3  dx2y2  Ryd( 4d)     0.00014       3.39297
   121    C    3  dx2y2  Ryd( 5d)     0.00007       4.06403
   122    C    3  dz2    Ryd( 3d)     0.00066       2.52556
   123    C    3  dz2    Ryd( 4d)     0.00024       3.32584
   124    C    3  dz2    Ryd( 5d)     0.00007       4.26649
   125    C    3  f(0)   Ryd( 5f)     0.00017       3.41646
   126    C    3  f(0)   Ryd( 4f)     0.00004       2.21265
   127    C    3  f(C1)  Ryd( 5f)     0.00021       3.79585
   128    C    3  f(C1)  Ryd( 4f)     0.00003       3.47410
   129    C    3  f(S1)  Ryd( 5f)     0.00025       3.72267
   130    C    3  f(S1)  Ryd( 4f)     0.00005       3.09128
   131    C    3  f(C2)  Ryd( 5f)     0.00001       3.57969
   132    C    3  f(C2)  Ryd( 4f)     0.00002       2.52106
   133    C    3  f(S2)  Ryd( 5f)     0.00000       3.53509
   134    C    3  f(S2)  Ryd( 4f)     0.00002       2.27435
   135    C    3  f(C3)  Ryd( 4f)     0.00003       4.38919
   136    C    3  f(C3)  Ryd( 5f)     0.00007       4.60480
   137    C    3  f(S3)  Ryd( 4f)     0.00015       4.26193
   138    C    3  f(S3)  Ryd( 5f)     0.00008       5.38546
 
   139    C    4  S      Cor( 1S)     1.99885     -10.34850
   140    C    4  S      Val( 2S)     0.89670      -0.10938
   141    C    4  S      Ryd( 4S)     0.00129       2.09281
   142    C    4  S      Ryd( 3S)     0.00008       2.03496
   143    C    4  S      Ryd( 5S)     0.00003       4.04684
   144    C    4  px     Val( 2p)     1.12292      -0.10517
   145    C    4  px     Ryd( 5p)     0.00429       2.52317
   146    C    4  px     Ryd( 4p)     0.00014       2.20996
   147    C    4  px     Ryd( 3p)     0.00010       0.68411
   148    C    4  py     Val( 2p)     1.11176      -0.09562
   149    C    4  py     Ryd( 4p)     0.00590       1.96583
   150    C    4  py     Ryd( 5p)     0.00014       2.35498
   151    C    4  py     Ryd( 3p)     0.00007       0.94527
   152    C    4  pz     Val( 2p)     1.16805      -0.13618
   153    C    4  pz     Ryd( 4p)     0.00182       1.01389
   154    C    4  pz     Ryd( 5p)     0.00023       1.80516
   155    C    4  pz     Ryd( 3p)     0.00002       0.49891
   156    C    4  dxy    Ryd( 3d)     0.00111       3.07875
   157    C    4  dxy    Ryd( 4d)     0.00057       3.94659
   158    C    4  dxy    Ryd( 5d)     0.00008       4.60459
   159    C    4  dxz    Ryd( 3d)     0.00011       1.56761
   160    C    4  dxz    Ryd( 5d)     0.00018       3.25717
   161    C    4  dxz    Ryd( 4d)     0.00013       1.67701
   162    C    4  dyz    Ryd( 3d)     0.00126       1.27764
   163    C    4  dyz    Ryd( 5d)     0.00003       3.17207
   164    C    4  dyz    Ryd( 4d)     0.00004       1.96810
   165    C    4  dx2y2  Ryd( 3d)     0.00213       2.92930
   166    C    4  dx2y2  Ryd( 4d)     0.00025       3.90982
   167    C    4  dx2y2  Ryd( 5d)     0.00004       3.93196
   168    C    4  dz2    Ryd( 3d)     0.00159       1.87226
   169    C    4  dz2    Ryd( 4d)     0.00024       3.96153
   170    C    4  dz2    Ryd( 5d)     0.00007       4.81434
   171    C    4  f(0)   Ryd( 4f)     0.00079       1.71999
   172    C    4  f(0)   Ryd( 5f)     0.00020       3.24025
   173    C    4  f(C1)  Ryd( 4f)     0.00136       2.19203
   174    C    4  f(C1)  Ryd( 5f)     0.00045       3.49099
   175    C    4  f(S1)  Ryd( 4f)     0.00084       1.81605
   176    C    4  f(S1)  Ryd( 5f)     0.00026       3.35836
   177    C    4  f(C2)  Ryd( 4f)     0.00088       1.76903
   178    C    4  f(C2)  Ryd( 5f)     0.00009       3.26504
   179    C    4  f(S2)  Ryd( 4f)     0.00056       1.61560
   180    C    4  f(S2)  Ryd( 5f)     0.00007       3.28925
   181    C    4  f(C3)  Ryd( 4f)     0.00119       2.58773
   182    C    4  f(C3)  Ryd( 5f)     0.00016       4.10200
   183    C    4  f(S3)  Ryd( 4f)     0.00143       2.65882
   184    C    4  f(S3)  Ryd( 5f)     0.00019       4.01989
 
   185    C    5  S      Cor( 1S)     1.99914     -10.40005
   186    C    5  S      Val( 2S)     0.91333      -0.15193
   187    C    5  S      Ryd( 4S)     0.00274       1.86968
   188    C    5  S      Ryd( 5S)     0.00012       2.49402
   189    C    5  S      Ryd( 3S)     0.00008       1.32281
   190    C    5  px     Val( 2p)     0.92955      -0.03543
   191    C    5  px     Ryd( 4p)     0.00647       1.74237
   192    C    5  px     Ryd( 5p)     0.00014       1.96988
   193    C    5  px     Ryd( 3p)     0.00008       1.01311
   194    C    5  py     Val( 2p)     1.12930      -0.07406
   195    C    5  py     Ryd( 5p)     0.00470       1.92345
   196    C    5  py     Ryd( 4p)     0.00012       1.81041
   197    C    5  py     Ryd( 3p)     0.00004       0.82490
   198    C    5  pz     Val( 2p)     0.99218      -0.12263
   199    C    5  pz     Ryd( 4p)     0.00144       1.16519
   200    C    5  pz     Ryd( 5p)     0.00011       1.26266
   201    C    5  pz     Ryd( 3p)     0.00003       0.51518
   202    C    5  dxy    Ryd( 3d)     0.00284       2.23461
   203    C    5  dxy    Ryd( 5d)     0.00013       3.65007
   204    C    5  dxy    Ryd( 4d)     0.00005       2.67807
   205    C    5  dxz    Ryd( 3d)     0.00161       1.28137
   206    C    5  dxz    Ryd( 5d)     0.00007       3.03831
   207    C    5  dxz    Ryd( 4d)     0.00004       2.07150
   208    C    5  dyz    Ryd( 3d)     0.00065       1.32862
   209    C    5  dyz    Ryd( 5d)     0.00010       3.05292
   210    C    5  dyz    Ryd( 4d)     0.00001       1.63548
   211    C    5  dx2y2  Ryd( 4d)     0.00142       2.75235
   212    C    5  dx2y2  Ryd( 5d)     0.00074       4.11310
   213    C    5  dx2y2  Ryd( 3d)     0.00005       2.47396
   214    C    5  dz2    Ryd( 3d)     0.00118       2.06590
   215    C    5  dz2    Ryd( 5d)     0.00013       3.93293
   216    C    5  dz2    Ryd( 4d)     0.00004       3.42530
   217    C    5  f(0)   Ryd( 5f)     0.00015       3.48319
   218    C    5  f(0)   Ryd( 4f)     0.00004       2.13073
   219    C    5  f(C1)  Ryd( 5f)     0.00014       3.81790
   220    C    5  f(C1)  Ryd( 4f)     0.00005       3.11147
   221    C    5  f(S1)  Ryd( 5f)     0.00026       3.65538
   222    C    5  f(S1)  Ryd( 4f)     0.00003       2.90015
   223    C    5  f(C2)  Ryd( 5f)     0.00001       3.64047
   224    C    5  f(C2)  Ryd( 4f)     0.00001       2.21303
   225    C    5  f(S2)  Ryd( 5f)     0.00001       3.61005
   226    C    5  f(S2)  Ryd( 4f)     0.00003       2.25123
   227    C    5  f(C3)  Ryd( 4f)     0.00019       4.35240
   228    C    5  f(C3)  Ryd( 5f)     0.00008       5.34421
   229    C    5  f(S3)  Ryd( 5f)     0.00006       4.50135
   230    C    5  f(S3)  Ryd( 4f)     0.00006       3.97891
 
   231    N    6  S      Cor( 1S)     1.99936     -14.55168
   232    N    6  S      Val( 2S)     1.32692      -0.53779
   233    N    6  S      Ryd( 4S)     0.00287       3.18749
   234    N    6  S      Ryd( 3S)     0.00013       1.75700
   235    N    6  S      Ryd( 5S)     0.00002       9.74091
   236    N    6  px     Val( 2p)     1.41973      -0.23779
   237    N    6  px     Ryd( 4p)     0.00566       2.09123
   238    N    6  px     Ryd( 3p)     0.00008       1.08845
   239    N    6  px     Ryd( 5p)     0.00008       3.85648
   240    N    6  py     Val( 2p)     1.24235      -0.17868
   241    N    6  py     Ryd( 4p)     0.00417       1.87498
   242    N    6  py     Ryd( 3p)     0.00014       1.55515
   243    N    6  py     Ryd( 5p)     0.00006       3.04213
   244    N    6  pz     Val( 2p)     1.23842      -0.21497
   245    N    6  pz     Ryd( 4p)     0.00243       1.28005
   246    N    6  pz     Ryd( 3p)     0.00004       0.79664
   247    N    6  pz     Ryd( 5p)     0.00002       2.66369
   248    N    6  dxy    Ryd( 3d)     0.00237       2.13300
   249    N    6  dxy    Ryd( 5d)     0.00027       4.64024
   250    N    6  dxy    Ryd( 4d)     0.00022       2.28633
   251    N    6  dxz    Ryd( 3d)     0.00184       1.55266
   252    N    6  dxz    Ryd( 5d)     0.00010       4.54416
   253    N    6  dxz    Ryd( 4d)     0.00001       1.66586
   254    N    6  dyz    Ryd( 3d)     0.00265       1.58478
   255    N    6  dyz    Ryd( 5d)     0.00011       4.22934
   256    N    6  dyz    Ryd( 4d)     0.00005       1.61301
   257    N    6  dx2y2  Ryd( 4d)     0.00632       2.83151
   258    N    6  dx2y2  Ryd( 5d)     0.00022       5.06398
   259    N    6  dx2y2  Ryd( 3d)     0.00009       2.45162
   260    N    6  dz2    Ryd( 3d)     0.00686       1.86407
   261    N    6  dz2    Ryd( 5d)     0.00006       4.74995
   262    N    6  dz2    Ryd( 4d)     0.00011       2.88405
   263    N    6  f(0)   Ryd( 5f)     0.00012       4.86791
   264    N    6  f(0)   Ryd( 4f)     0.00004       2.33625
   265    N    6  f(C1)  Ryd( 5f)     0.00010       4.95565
   266    N    6  f(C1)  Ryd( 4f)     0.00007       3.35009
   267    N    6  f(S1)  Ryd( 5f)     0.00009       4.94854
   268    N    6  f(S1)  Ryd( 4f)     0.00002       3.70614
   269    N    6  f(C2)  Ryd( 5f)     0.00002       4.94842
   270    N    6  f(C2)  Ryd( 4f)     0.00001       2.55644
   271    N    6  f(S2)  Ryd( 5f)     0.00004       4.91276
   272    N    6  f(S2)  Ryd( 4f)     0.00003       2.53925
   273    N    6  f(C3)  Ryd( 5f)     0.00012       5.37389
   274    N    6  f(C3)  Ryd( 4f)     0.00012       4.61514
   275    N    6  f(S3)  Ryd( 5f)     0.00009       5.35939
   276    N    6  f(S3)  Ryd( 4f)     0.00009       3.71695
 
   277    C    7  S      Cor( 1S)     1.99901     -10.52757
   278    C    7  S      Val( 2S)     0.77286      -0.09069
   279    C    7  S      Ryd( 4S)     0.00346       2.05631
   280    C    7  S      Ryd( 3S)     0.00023       1.17890
   281    C    7  S      Ryd( 5S)     0.00012       3.07912
   282    C    7  px     Val( 2p)     0.89263      -0.04125
   283    C    7  px     Ryd( 5p)     0.00474       1.61637
   284    C    7  px     Ryd( 3p)     0.00025       0.89253
   285    C    7  px     Ryd( 4p)     0.00003       1.53161
   286    C    7  py     Val( 2p)     0.75318      -0.00660
   287    C    7  py     Ryd( 4p)     0.01414       1.60695
   288    C    7  py     Ryd( 3p)     0.00008       0.86611
   289    C    7  py     Ryd( 5p)     0.00014       2.51536
   290    C    7  pz     Val( 2p)     0.75300      -0.11254
   291    C    7  pz     Ryd( 4p)     0.00059       1.16673
   292    C    7  pz     Ryd( 3p)     0.00009       0.54990
   293    C    7  pz     Ryd( 5p)     0.00003       1.17218
   294    C    7  dxy    Ryd( 5d)     0.00125       4.24400
   295    C    7  dxy    Ryd( 3d)     0.00008       2.05169
   296    C    7  dxy    Ryd( 4d)     0.00005       4.02907
   297    C    7  dxz    Ryd( 5d)     0.00070       3.25752
   298    C    7  dxz    Ryd( 3d)     0.00007       1.29995
   299    C    7  dxz    Ryd( 4d)     0.00007       2.43717
   300    C    7  dyz    Ryd( 5d)     0.00140       3.40226
   301    C    7  dyz    Ryd( 3d)     0.00007       1.56057
   302    C    7  dyz    Ryd( 4d)     0.00004       2.60173
   303    C    7  dx2y2  Ryd( 5d)     0.00111       4.25511
   304    C    7  dx2y2  Ryd( 3d)     0.00011       2.51663
   305    C    7  dx2y2  Ryd( 4d)     0.00005       4.06780
   306    C    7  dz2    Ryd( 5d)     0.00019       4.50970
   307    C    7  dz2    Ryd( 3d)     0.00019       2.78124
   308    C    7  dz2    Ryd( 4d)     0.00018       3.46216
   309    C    7  f(0)   Ryd( 5f)     0.00012       3.27899
   310    C    7  f(0)   Ryd( 4f)     0.00003       2.71698
   311    C    7  f(C1)  Ryd( 5f)     0.00014       3.56673
   312    C    7  f(C1)  Ryd( 4f)     0.00003       3.28514
   313    C    7  f(S1)  Ryd( 4f)     0.00007       3.45173
   314    C    7  f(S1)  Ryd( 5f)     0.00004       3.45819
   315    C    7  f(C2)  Ryd( 5f)     0.00002       3.30716
   316    C    7  f(C2)  Ryd( 4f)     0.00011       2.83023
   317    C    7  f(S2)  Ryd( 5f)     0.00002       3.36061
   318    C    7  f(S2)  Ryd( 4f)     0.00001       3.05179
   319    C    7  f(C3)  Ryd( 4f)     0.00013       4.60348
   320    C    7  f(C3)  Ryd( 5f)     0.00003       6.33331
   321    C    7  f(S3)  Ryd( 4f)     0.00009       4.42998
   322    C    7  f(S3)  Ryd( 5f)     0.00004       6.25108
 
   323    O    8  S      Cor( 1S)     1.99979     -19.31769
   324    O    8  S      Val( 2S)     1.70755      -0.98788
   325    O    8  S      Ryd( 4S)     0.00092       2.77513
   326    O    8  S      Ryd( 3S)     0.00015       1.54533
   327    O    8  S      Ryd( 5S)     0.00001       8.71950
   328    O    8  px     Val( 2p)     1.84632      -0.33046
   329    O    8  px     Ryd( 4p)     0.00154       1.14418
   330    O    8  px     Ryd( 3p)     0.00007       0.61271
   331    O    8  px     Ryd( 5p)     0.00002       4.65069
   332    O    8  py     Val( 2p)     1.56287      -0.32176
   333    O    8  py     Ryd( 4p)     0.00111       1.33443
   334    O    8  py     Ryd( 3p)     0.00010       0.57589
   335    O    8  py     Ryd( 5p)     0.00007       5.68911
   336    O    8  pz     Val( 2p)     1.48097      -0.28149
   337    O    8  pz     Ryd( 4p)     0.00087       0.85811
   338    O    8  pz     Ryd( 3p)     0.00006       0.51639
   339    O    8  pz     Ryd( 5p)     0.00000       4.22240
   340    O    8  dxy    Ryd( 3d)     0.00619       1.92038
   341    O    8  dxy    Ryd( 4d)     0.00010       2.40716
   342    O    8  dxy    Ryd( 5d)     0.00005       6.60327
   343    O    8  dxz    Ryd( 3d)     0.00070       1.40420
   344    O    8  dxz    Ryd( 4d)     0.00003       1.59481
   345    O    8  dxz    Ryd( 5d)     0.00001       6.52409
   346    O    8  dyz    Ryd( 3d)     0.00633       1.57250
   347    O    8  dyz    Ryd( 4d)     0.00005       1.67103
   348    O    8  dyz    Ryd( 5d)     0.00004       6.49256
   349    O    8  dx2y2  Ryd( 3d)     0.00728       1.96583
   350    O    8  dx2y2  Ryd( 4d)     0.00012       2.59675
   351    O    8  dx2y2  Ryd( 5d)     0.00003       6.65433
   352    O    8  dz2    Ryd( 3d)     0.00278       1.62258
   353    O    8  dz2    Ryd( 4d)     0.00008       2.43396
   354    O    8  dz2    Ryd( 5d)     0.00000       6.60468
   355    O    8  f(0)   Ryd( 4f)     0.00014       3.02897
   356    O    8  f(0)   Ryd( 5f)     0.00000       5.60475
   357    O    8  f(C1)  Ryd( 4f)     0.00004       3.04802
   358    O    8  f(C1)  Ryd( 5f)     0.00001       5.60934
   359    O    8  f(S1)  Ryd( 4f)     0.00013       3.56335
   360    O    8  f(S1)  Ryd( 5f)     0.00001       5.89510
   361    O    8  f(C2)  Ryd( 4f)     0.00031       3.08219
   362    O    8  f(C2)  Ryd( 5f)     0.00002       5.72495
   363    O    8  f(S2)  Ryd( 4f)     0.00013       3.00355
   364    O    8  f(S2)  Ryd( 5f)     0.00001       5.77160
   365    O    8  f(C3)  Ryd( 4f)     0.00049       3.69166
   366    O    8  f(C3)  Ryd( 5f)     0.00002       6.07806
   367    O    8  f(S3)  Ryd( 4f)     0.00035       3.64530
   368    O    8  f(S3)  Ryd( 5f)     0.00002       6.03986
 
   369    O    9  S      Cor( 1S)     1.99978     -19.45499
   370    O    9  S      Val( 2S)     1.67591      -1.02741
   371    O    9  S      Ryd( 3S)     0.00073       1.55877
   372    O    9  S      Ryd( 4S)     0.00007       2.60668
   373    O    9  S      Ryd( 5S)     0.00001       9.69655
   374    O    9  px     Val( 2p)     1.43163      -0.34838
   375    O    9  px     Ryd( 4p)     0.00091       1.09998
   376    O    9  px     Ryd( 3p)     0.00006       0.78065
   377    O    9  px     Ryd( 5p)     0.00007       5.11983
   378    O    9  py     Val( 2p)     1.72415      -0.40106
   379    O    9  py     Ryd( 4p)     0.00065       0.90854
   380    O    9  py     Ryd( 3p)     0.00015       0.76829
   381    O    9  py     Ryd( 5p)     0.00007       4.76844
   382    O    9  pz     Val( 2p)     1.84851      -0.40740
   383    O    9  pz     Ryd( 4p)     0.00122       0.73783
   384    O    9  pz     Ryd( 3p)     0.00002       0.69340
   385    O    9  pz     Ryd( 5p)     0.00001       3.98081
   386    O    9  dxy    Ryd( 3d)     0.00750       2.03004
   387    O    9  dxy    Ryd( 4d)     0.00017       2.43060
   388    O    9  dxy    Ryd( 5d)     0.00004       6.89819
   389    O    9  dxz    Ryd( 3d)     0.00023       1.20251
   390    O    9  dxz    Ryd( 4d)     0.00009       1.90640
   391    O    9  dxz    Ryd( 5d)     0.00002       6.50630
   392    O    9  dyz    Ryd( 3d)     0.00511       1.25229
   393    O    9  dyz    Ryd( 4d)     0.00003       1.71528
   394    O    9  dyz    Ryd( 5d)     0.00004       6.48634
   395    O    9  dx2y2  Ryd( 3d)     0.00295       1.65706
   396    O    9  dx2y2  Ryd( 4d)     0.00012       2.12871
   397    O    9  dx2y2  Ryd( 5d)     0.00006       6.76871
   398    O    9  dz2    Ryd( 3d)     0.00316       1.45518
   399    O    9  dz2    Ryd( 4d)     0.00014       2.30218
   400    O    9  dz2    Ryd( 5d)     0.00001       6.70761
   401    O    9  f(0)   Ryd( 4f)     0.00055       2.73400
   402    O    9  f(0)   Ryd( 5f)     0.00001       5.95621
   403    O    9  f(C1)  Ryd( 4f)     0.00028       3.40608
   404    O    9  f(C1)  Ryd( 5f)     0.00001       6.20926
   405    O    9  f(S1)  Ryd( 4f)     0.00013       3.06682
   406    O    9  f(S1)  Ryd( 5f)     0.00001       6.08592
   407    O    9  f(C2)  Ryd( 4f)     0.00011       2.75884
   408    O    9  f(C2)  Ryd( 5f)     0.00001       6.11894
   409    O    9  f(S2)  Ryd( 4f)     0.00006       2.86571
   410    O    9  f(S2)  Ryd( 5f)     0.00001       5.98936
   411    O    9  f(C3)  Ryd( 4f)     0.00004       3.87355
   412    O    9  f(C3)  Ryd( 5f)     0.00003       6.45089
   413    O    9  f(S3)  Ryd( 4f)     0.00015       4.13963
   414    O    9  f(S3)  Ryd( 5f)     0.00005       6.50640
 
   415    H   10  S      Val( 1S)     0.78305      -0.01494
   416    H   10  S      Ryd( 4S)     0.00017       1.64717
   417    H   10  S      Ryd( 2S)     0.00010       0.63840
   418    H   10  S      Ryd( 3S)     0.00003       1.37406
   419    H   10  px     Ryd( 2p)     0.00026       1.10683
   420    H   10  px     Ryd( 4p)     0.00003       3.86227
   421    H   10  px     Ryd( 3p)     0.00003       1.79695
   422    H   10  py     Ryd( 2p)     0.00075       1.24058
   423    H   10  py     Ryd( 4p)     0.00012       4.20548
   424    H   10  py     Ryd( 3p)     0.00001       3.42917
   425    H   10  pz     Ryd( 2p)     0.00018       0.87938
   426    H   10  pz     Ryd( 4p)     0.00005       3.76269
   427    H   10  pz     Ryd( 3p)     0.00003       1.73909
   428    H   10  dxy    Ryd( 3d)     0.00001       2.08264
   429    H   10  dxy    Ryd( 4d)     0.00002       3.98106
   430    H   10  dxz    Ryd( 3d)     0.00003       1.83298
   431    H   10  dxz    Ryd( 4d)     0.00001       3.22141
   432    H   10  dyz    Ryd( 3d)     0.00001       1.94339
   433    H   10  dyz    Ryd( 4d)     0.00002       3.88940
   434    H   10  dx2y2  Ryd( 3d)     0.00012       2.31016
   435    H   10  dx2y2  Ryd( 4d)     0.00001       4.24683
   436    H   10  dz2    Ryd( 3d)     0.00010       1.93719
   437    H   10  dz2    Ryd( 4d)     0.00002       3.53999
 
   438    H   11  S      Val( 1S)     0.78164      -0.00222
   439    H   11  S      Ryd( 4S)     0.00027       1.87858
   440    H   11  S      Ryd( 2S)     0.00007       0.34873
   441    H   11  S      Ryd( 3S)     0.00003       1.43599
   442    H   11  px     Ryd( 2p)     0.00035       0.87011
   443    H   11  px     Ryd( 4p)     0.00004       4.09155
   444    H   11  px     Ryd( 3p)     0.00003       2.21720
   445    H   11  py     Ryd( 2p)     0.00057       0.83933
   446    H   11  py     Ryd( 4p)     0.00007       3.86235
   447    H   11  py     Ryd( 3p)     0.00002       2.09429
   448    H   11  pz     Ryd( 2p)     0.00060       0.95473
   449    H   11  pz     Ryd( 4p)     0.00009       4.17140
   450    H   11  pz     Ryd( 3p)     0.00001       3.03681
   451    H   11  dxy    Ryd( 3d)     0.00002       2.31776
   452    H   11  dxy    Ryd( 4d)     0.00002       3.11393
   453    H   11  dxz    Ryd( 3d)     0.00008       2.30531
   454    H   11  dxz    Ryd( 4d)     0.00001       3.89455
   455    H   11  dyz    Ryd( 3d)     0.00005       2.29650
   456    H   11  dyz    Ryd( 4d)     0.00001       3.45570
   457    H   11  dx2y2  Ryd( 3d)     0.00002       2.31642
   458    H   11  dx2y2  Ryd( 4d)     0.00001       3.23887
   459    H   11  dz2    Ryd( 3d)     0.00005       2.35011
   460    H   11  dz2    Ryd( 4d)     0.00002       3.75621
 
   461    H   12  S      Val( 1S)     0.78082      -0.00178
   462    H   12  S      Ryd( 4S)     0.00028       1.87764
   463    H   12  S      Ryd( 2S)     0.00007       0.35000
   464    H   12  S      Ryd( 3S)     0.00004       1.43474
   465    H   12  px     Ryd( 2p)     0.00036       0.85512
   466    H   12  px     Ryd( 4p)     0.00004       4.10735
   467    H   12  px     Ryd( 3p)     0.00003       2.25128
   468    H   12  py     Ryd( 2p)     0.00063       0.83280
   469    H   12  py     Ryd( 4p)     0.00007       3.88731
   470    H   12  py     Ryd( 3p)     0.00002       2.14501
   471    H   12  pz     Ryd( 2p)     0.00056       0.92434
   472    H   12  pz     Ryd( 4p)     0.00008       4.13500
   473    H   12  pz     Ryd( 3p)     0.00001       2.99474
   474    H   12  dxy    Ryd( 3d)     0.00002       2.31733
   475    H   12  dxy    Ryd( 4d)     0.00002       3.16341
   476    H   12  dxz    Ryd( 3d)     0.00008       2.29784
   477    H   12  dxz    Ryd( 4d)     0.00001       3.88168
   478    H   12  dyz    Ryd( 3d)     0.00005       2.29623
   479    H   12  dyz    Ryd( 4d)     0.00001       3.46540
   480    H   12  dx2y2  Ryd( 3d)     0.00001       2.31242
   481    H   12  dx2y2  Ryd( 4d)     0.00001       3.27971
   482    H   12  dz2    Ryd( 3d)     0.00004       2.32733
   483    H   12  dz2    Ryd( 4d)     0.00002       3.71259
 
   484    H   13  S      Val( 1S)     0.76349       0.01544
   485    H   13  S      Ryd( 4S)     0.00035       1.86549
   486    H   13  S      Ryd( 2S)     0.00012       0.52123
   487    H   13  S      Ryd( 3S)     0.00005       1.82598
   488    H   13  px     Ryd( 2p)     0.00062       1.22854
   489    H   13  px     Ryd( 4p)     0.00001       4.14831
   490    H   13  px     Ryd( 3p)     0.00007       2.11933
   491    H   13  py     Ryd( 2p)     0.00076       0.92396
   492    H   13  py     Ryd( 4p)     0.00031       4.54187
   493    H   13  py     Ryd( 3p)     0.00003       3.96082
   494    H   13  pz     Ryd( 2p)     0.00121       0.56505
   495    H   13  pz     Ryd( 4p)     0.00000       4.04189
   496    H   13  pz     Ryd( 3p)     0.00006       1.77719
   497    H   13  dxy    Ryd( 3d)     0.00005       2.07463
   498    H   13  dxy    Ryd( 4d)     0.00005       4.25450
   499    H   13  dxz    Ryd( 3d)     0.00004       1.59503
   500    H   13  dxz    Ryd( 4d)     0.00000       3.35074
   501    H   13  dyz    Ryd( 3d)     0.00002       1.72488
   502    H   13  dyz    Ryd( 4d)     0.00001       3.91324
   503    H   13  dx2y2  Ryd( 3d)     0.00009       2.06293
   504    H   13  dx2y2  Ryd( 4d)     0.00003       4.17607
   505    H   13  dz2    Ryd( 3d)     0.00008       1.91990
   506    H   13  dz2    Ryd( 4d)     0.00003       3.70129
 
   507    H   14  S      Val( 1S)     0.78150       0.03259
   508    H   14  S      Ryd( 4S)     0.00026       1.87954
   509    H   14  S      Ryd( 2S)     0.00007       0.51159
   510    H   14  S      Ryd( 3S)     0.00005       1.61498
   511    H   14  px     Ryd( 2p)     0.00061       0.94577
   512    H   14  px     Ryd( 4p)     0.00009       4.16727
   513    H   14  px     Ryd( 3p)     0.00003       2.64838
   514    H   14  py     Ryd( 2p)     0.00107       0.83228
   515    H   14  py     Ryd( 4p)     0.00021       4.60515
   516    H   14  py     Ryd( 3p)     0.00001       3.42329
   517    H   14  pz     Ryd( 2p)     0.00074       0.59419
   518    H   14  pz     Ryd( 4p)     0.00004       3.84222
   519    H   14  pz     Ryd( 3p)     0.00004       1.85655
   520    H   14  dxy    Ryd( 3d)     0.00012       1.95267
   521    H   14  dxy    Ryd( 4d)     0.00002       4.34490
   522    H   14  dxz    Ryd( 3d)     0.00007       1.47519
   523    H   14  dxz    Ryd( 4d)     0.00001       3.60643
   524    H   14  dyz    Ryd( 3d)     0.00003       1.63268
   525    H   14  dyz    Ryd( 4d)     0.00001       3.91864
   526    H   14  dx2y2  Ryd( 3d)     0.00010       2.08083
   527    H   14  dx2y2  Ryd( 4d)     0.00004       4.37056
   528    H   14  dz2    Ryd( 3d)     0.00010       1.78225
   529    H   14  dz2    Ryd( 4d)     0.00004       3.83779
 
   530    H   15  S      Val( 1S)     0.49482       0.13703
   531    H   15  S      Ryd( 4S)     0.00102       1.77822
   532    H   15  S      Ryd( 3S)     0.00022       1.67449
   533    H   15  S      Ryd( 2S)     0.00008       0.57017
   534    H   15  px     Ryd( 2p)     0.00044       1.76773
   535    H   15  px     Ryd( 4p)     0.00030       4.40006
   536    H   15  px     Ryd( 3p)     0.00001       3.19272
   537    H   15  py     Ryd( 2p)     0.00032       1.46911
   538    H   15  py     Ryd( 4p)     0.00010       3.70026
   539    H   15  py     Ryd( 3p)     0.00001       2.78893
   540    H   15  pz     Ryd( 2p)     0.00068       1.11559
   541    H   15  pz     Ryd( 4p)     0.00006       3.35802
   542    H   15  pz     Ryd( 3p)     0.00001       2.52688
   543    H   15  dxy    Ryd( 3d)     0.00007       1.59851
   544    H   15  dxy    Ryd( 4d)     0.00000       4.46265
   545    H   15  dxz    Ryd( 3d)     0.00016       1.14456
   546    H   15  dxz    Ryd( 4d)     0.00000       4.19506
   547    H   15  dyz    Ryd( 3d)     0.00003       1.13255
   548    H   15  dyz    Ryd( 4d)     0.00000       3.83897
   549    H   15  dx2y2  Ryd( 3d)     0.00010       1.49199
   550    H   15  dx2y2  Ryd( 4d)     0.00001       4.49059
   551    H   15  dz2    Ryd( 3d)     0.00010       1.59987
   552    H   15  dz2    Ryd( 4d)     0.00000       4.03132

 WARNING:  1 low occupancy (<1.9990e) core orbital  found on  C    4

 WARNING:  Population inversion found on atom  C    1
           Population inversion found on atom  N    2
           Population inversion found on atom  C    3
           Population inversion found on atom  C    4
           Population inversion found on atom  C    5
           Population inversion found on atom  N    6
           Population inversion found on atom  C    7
           Population inversion found on atom  O    8
           Population inversion found on atom  O    9
           Population inversion found on atom  H   10
           Population inversion found on atom  H   11
           Population inversion found on atom  H   12
           Population inversion found on atom  H   13
           Population inversion found on atom  H   14
           Population inversion found on atom  H   15


 Summary of Natural Population Analysis:                  
                                                          
                                       Natural Population 
                Natural  -----------------------------------------------
    Atom  No    Charge         Core      Valence    Rydberg      Total
 -----------------------------------------------------------------------
      C    1   -0.38126      1.99943     4.36895    0.01288     6.38126
      N    2   -0.12897      1.99927     5.09458    0.03512     7.12897
      C    3    0.03117      1.99900     3.95178    0.01806     5.96883
      C    4   -0.32868      1.99885     4.29943    0.03040     6.32868
      C    5    0.01026      1.99914     3.96436    0.02624     5.98974
      N    6   -0.26471      1.99936     5.22742    0.03793     7.26471
      C    7    0.79900      1.99901     3.17167    0.03032     5.20100
      O    8   -0.62789      1.99979     6.59771    0.03038     8.62789
      O    9   -0.70506      1.99978     6.68020    0.02508     8.70506
      H   10    0.21484      0.00000     0.78305    0.00211     0.78516
      H   11    0.21592      0.00000     0.78164    0.00244     0.78408
      H   12    0.21670      0.00000     0.78082    0.00248     0.78330
      H   13    0.23251      0.00000     0.76349    0.00399     0.76749
      H   14    0.21474      0.00000     0.78150    0.00377     0.78526
      H   15    0.50144      0.00000     0.49482    0.00374     0.49856
 =======================================================================
   * Total *    0.00000     17.99363    47.74143    0.26495    66.00000

                                 Natural Population      
 --------------------------------------------------------
   Core                      17.99363 ( 99.9646% of  18)
   Valence                   47.74143 ( 99.4613% of  48)
   Natural Minimal Basis     65.73505 ( 99.5986% of  66)
   Natural Rydberg Basis      0.26495 (  0.4014% of  66)
 --------------------------------------------------------

    Atom  No          Natural Electron Configuration
 ----------------------------------------------------------------------------
      C    1      [core]2S( 1.10)2p( 3.27)4d( 0.01)
      N    2      [core]2S( 1.13)2p( 3.97)3d( 0.01)4p( 0.01)4f( 0.01)
      C    3      [core]2S( 0.91)2p( 3.04)5p( 0.01)
      C    4      [core]2S( 0.90)2p( 3.40)3d( 0.01)4p( 0.01)4f( 0.01)
      C    5      [core]2S( 0.91)2p( 3.05)3d( 0.01)4p( 0.01)
      N    6      [core]2S( 1.33)2p( 3.90)3d( 0.01)4p( 0.01)4d( 0.01)
      C    7      [core]2S( 0.77)2p( 2.40)4p( 0.01)
      O    8      [core]2S( 1.71)2p( 4.89)3d( 0.02)
      O    9      [core]2S( 1.68)2p( 5.00)3d( 0.02)
      H   10            1S( 0.78)
      H   11            1S( 0.78)
      H   12            1S( 0.78)
      H   13            1S( 0.76)
      H   14            1S( 0.78)
      H   15            1S( 0.49)


 NATURAL BOND ORBITAL ANALYSIS:

                       Occupancies       Lewis Structure    Low   High
           Occ.    -------------------  -----------------   occ   occ
  Cycle   Thresh.   Lewis   Non-Lewis     CR  BD  3C  LP    (L)   (NL)   Dev
 =============================================================================
   1(1)    1.90    62.89927   3.10073      9  17   0   7     8      5    0.50
   2(2)    1.90    62.89927   3.10073      9  17   0   7     8      5    0.50
   3(1)    1.80    64.27441   1.72559      9  18   0   6     1      3    0.37
   4(2)    1.80    64.27441   1.72559      9  18   0   6     1      3    0.37
   5(1)    1.70    64.39873   1.60127      9  18   0   6     1      3    0.32
   6(2)    1.70    64.39873   1.60127      9  18   0   6     1      3    0.32
   7(1)    1.60    64.39873   1.60127      9  18   0   6     1      3    0.32
   8(2)    1.60    64.17933   1.82067      9  18   0   6     1      3    0.50
   9(3)    1.60    64.39873   1.60127      9  18   0   6     1      3    0.32
  10(1)    1.50    63.32873   2.67127      9  18   0   6     1      5    0.73
  11(2)    1.50    63.32873   2.67127      9  18   0   6     1      5    0.73
  12(1)    1.70    64.39873   1.60127      9  18   0   6     1      3    0.32
 -----------------------------------------------------------------------------

 Structure accepted: RESONANCE keyword permits strongly delocalized structure

 WARNING:  1 low occupancy (<1.9990e) core orbital  found on  C    4

 --------------------------------------------------------
   Core                     17.99364 ( 99.965% of  18)
   Valence Lewis            46.40509 ( 96.677% of  48)
  ==================       ============================
   Total Lewis              64.39873 ( 97.574% of  66)
  -----------------------------------------------------
   Valence non-Lewis         1.46423 (  2.219% of  66)
   Rydberg non-Lewis         0.13704 (  0.208% of  66)
  ==================       ============================
   Total non-Lewis           1.60127 (  2.426% of  66)
 --------------------------------------------------------


       (Occupancy)   Bond orbital/ Coefficients/ Hybrids
 ---------------------------------------------------------------------------------
     1. (1.98759) BD ( 1) C   1 - N   2  
                ( 35.93%)   0.5994* C   1 s( 24.52%)p 3.07( 75.36%)d 0.00(  0.12%)
                                                  f 0.00(  0.01%)
                                           -0.0001 -0.4946  0.0239 -0.0026  0.0007
                                           -0.7984 -0.0281  0.0072  0.0014 -0.3391
                                           -0.0179  0.0009  0.0012  0.0006  0.0000
                                            0.0000  0.0000 -0.0197 -0.0062 -0.0009
                                            0.0000  0.0000  0.0000  0.0000  0.0000
                                            0.0000 -0.0213 -0.0048 -0.0014  0.0149
                                            0.0052  0.0000 -0.0002 -0.0002  0.0035
                                           -0.0033 -0.0010 -0.0049 -0.0001  0.0000
                                           -0.0001 -0.0001  0.0002  0.0026 -0.0018
                                            0.0070
                ( 64.07%)   0.8005* N   2 s( 29.65%)p 2.37( 70.25%)d 0.00(  0.03%)
                                                  f 0.00(  0.08%)
                                            0.0001 -0.5445 -0.0050  0.0004 -0.0004
                                            0.7883  0.0143 -0.0035 -0.0034  0.2836
                                            0.0184 -0.0028 -0.0010  0.0003  0.0000
                                            0.0000  0.0000 -0.0140 -0.0008  0.0004
                                            0.0000  0.0000  0.0000  0.0000  0.0000
                                            0.0000 -0.0085 -0.0029  0.0016  0.0054
                                            0.0021  0.0003 -0.0001  0.0000 -0.0192
                                           -0.0061 -0.0099 -0.0023 -0.0001  0.0000
                                           -0.0001  0.0000  0.0085 -0.0001  0.0134
                                            0.0023
     2. (1.99120) BD ( 1) C   1 - H  10  
                ( 60.72%)   0.7792* C   1 s( 26.02%)p 2.84( 73.83%)d 0.01(  0.14%)
                                                  f 0.00(  0.01%)
                                            0.0001 -0.5101 -0.0034 -0.0007  0.0000
                                           -0.0493  0.0135  0.0034 -0.0007  0.8574
                                           -0.0059  0.0007 -0.0002  0.0215 -0.0001
                                            0.0000  0.0000  0.0100  0.0005  0.0017
                                            0.0002  0.0000  0.0000 -0.0017  0.0000
                                            0.0001  0.0291 -0.0014 -0.0015  0.0214
                                           -0.0014  0.0000 -0.0004  0.0000  0.0020
                                            0.0025 -0.0064  0.0002 -0.0004  0.0000
                                            0.0000 -0.0001 -0.0031  0.0018 -0.0052
                                           -0.0008
                ( 39.28%)   0.6268* H  10 s( 99.90%)p 0.00(  0.08%)d 0.00(  0.02%)
                                           -0.9995  0.0000 -0.0002  0.0001  0.0002
                                           -0.0013 -0.0015  0.0255 -0.0106  0.0008
                                            0.0006 -0.0003  0.0000  0.0005 -0.0017
                                            0.0000  0.0000  0.0007 -0.0001 -0.0108
                                            0.0020 -0.0087  0.0016
     3. (1.98892) BD ( 1) C   1 - H  11  
                ( 60.96%)   0.7808* C   1 s( 24.76%)p 3.03( 75.10%)d 0.01(  0.14%)
                                                  f 0.00(  0.01%)
                                           -0.0001  0.4975  0.0059 -0.0006  0.0002
                                           -0.4145 -0.0056 -0.0020  0.0002  0.2538
                                           -0.0077 -0.0006 -0.0001  0.7174 -0.0082
                                            0.0016  0.0010 -0.0052  0.0004  0.0010
                                           -0.0236  0.0018  0.0005  0.0176  0.0007
                                            0.0003  0.0021 -0.0014  0.0002  0.0212
[...]
 ! D25   D(4,5,6,2)             -0.0023         -DE/DX =    0.0                 !
 ! D26   D(14,5,6,2)           179.9921         -DE/DX =    0.0                 !
 ! D27   D(4,7,9,15)           179.9983         -DE/DX =    0.0                 !
 ! D28   D(8,7,9,15)            -0.0009         -DE/DX =    0.0                 !
 --------------------------------------------------------------------------------
 GradGradGradGradGradGradGradGradGradGradGradGradGradGradGradGradGradGrad


 ----------------------------------------------------------------------

 Electric dipole moment (input orientation):
 (Debye = 10**-18 statcoulomb cm , SI units = C m)
                  (au)            (Debye)         (10**-30 SI)
   Tot        0.843603D+00      0.214422D+01      0.715236D+01
   x          0.643784D+00      0.163634D+01      0.545823D+01
   y         -0.378356D+00     -0.961686D+00     -0.320784D+01
   z          0.392497D+00      0.997627D+00      0.332773D+01

 Dipole polarizability, Alpha (input orientation).
 (esu units = cm**3 , SI units = C**2 m**2 J**-1)
 Alpha(0;0):
               (au)            (10**-24 esu)      (10**-40 SI)
   iso        0.806480D+02      0.119508D+02      0.132971D+02
   aniso      0.505483D+02      0.749048D+01      0.833428D+01
   xx         0.841527D+02      0.124701D+02      0.138749D+02
   yx        -0.192337D+02     -0.285014D+01     -0.317120D+01
   yy         0.621779D+02      0.921382D+01      0.102518D+02
   zx         0.114132D+02      0.169126D+01      0.188178D+01
   zy        -0.792605D+01     -0.117452D+01     -0.130683D+01
   zz         0.956132D+02      0.141684D+02      0.157645D+02

 ----------------------------------------------------------------------

 Dipole orientation:
     6         -4.42596679         -1.13057110          6.68283826
     7         -4.46174837         -1.11516380          3.94914120
     6         -2.73261591         -2.05691264          2.36368969
     6         -3.59891192         -1.57999829         -0.05003027
     6         -5.91407468         -0.31553877          0.31144049
     7         -6.41970676         -0.04310036          2.73657977
     6         -2.30278255         -2.28583859         -2.37732330
     8         -0.30917961         -3.37449366         -2.49293679
     8         -3.59450748         -1.57619762         -4.45710354
     1         -2.72888378         -2.09828877          7.31225229
     1         -4.42788559          0.80124686          7.38358203
     1         -6.08955770         -2.11065492          7.38535709
     1         -1.03948567         -2.98316806          3.00644393
     1         -7.19885943          0.38769477         -1.10128178
     1         -2.61019456         -2.11170185         -5.89838025

 Electric dipole moment (dipole orientation):
 (Debye = 10**-18 statcoulomb cm , SI units = C m)
                  (au)            (Debye)         (10**-30 SI)
   Tot        0.843603D+00      0.214422D+01      0.715236D+01
   x          0.000000D+00      0.000000D+00      0.000000D+00
   y          0.000000D+00      0.000000D+00      0.000000D+00
   z          0.843603D+00      0.214422D+01      0.715236D+01

 Dipole polarizability, Alpha (dipole orientation).
 (esu units = cm**3 , SI units = C**2 m**2 J**-1)
 Alpha(0;0):
               (au)            (10**-24 esu)      (10**-40 SI)
   iso        0.806480D+02      0.119508D+02      0.132971D+02
   aniso      0.505483D+02      0.749048D+01      0.833428D+01
   xx         0.765435D+02      0.113426D+02      0.126203D+02
   yx        -0.139608D+02     -0.206877D+01     -0.230182D+01
   yy         0.586083D+02      0.868486D+01      0.966321D+01
   zx        -0.701925D+01     -0.104015D+01     -0.115732D+01
   zy         0.380590D+01      0.563977D+00      0.627509D+00
   zz         0.106792D+03      0.158249D+02      0.176076D+02

 ----------------------------------------------------------------------
 Unable to Open any file for archive entry.
 1\1\GINC-AE28\Freq\RM062X\Aug-CC-pVTZ\C5H6N2O2\DHUANG\04-Mar-2025\0\\#
 N Geom=AllCheck Guess=TCheck SCRF=Check GenChk RM062X/Aug-CC-pVTZ Freq
 \\6\\0,1\C,1.1477823054,-2.6493122161,3.1643902282\N,0.0343162058,-1.9
 978955384,2.5094432174\C,-0.1710149455,-1.8378110493,1.1973001875\C,-1
 .3630281393,-1.1543035458,1.0660564592\C,-1.7989499186,-0.9490042323,2
 .3900979684\N,-0.9471407571,-1.4627021698,3.2560339345\C,-1.9768441626
 ,-0.763976716,-0.1978813483\O,-1.5224357579,-0.9871144811,-1.289809456
 9\O,-3.1408827857,-0.1060652736,-0.0198695782\H,1.8234615327,-3.030713
 0366,2.4043404785\H,1.668945813,-1.933926258,3.7961833063\H,0.77989630
 46,-3.4691196407,3.7765609235\H,0.5139162855,-2.203937779,0.4519716455
 \H,-2.6921865529,-0.4514772244,2.7280202413\H,-3.4752630274,0.11319797
 1,-0.8993153169\\Version=ES64L-G16RevC.01\State=1-A\HF=-454.0946592\RM
 SD=3.837e-09\RMSF=1.288e-04\ZeroPoint=0.115537\Thermal=0.1235662\ETot=
 -453.971093\HTot=-453.9701489\GTot=-454.0125727\Dipole=0.6437842,-0.37
 83563,0.3924967\DipoleDeriv=0.4555898,-0.1510192,0.2321836,-0.1521709,
 0.2895046,-0.1346566,0.1459409,-0.082887,0.2640781,-0.3542165,0.155287
 6,-0.2262913,0.1644372,-0.1907454,0.1435253,-0.3289577,0.1967451,-0.41
 55836,0.2866573,-0.1924481,0.3292703,-0.1956987,0.0852053,-0.1995268,0
 .377162,-0.2259438,0.3170772,-0.4647574,0.2042217,-0.3624049,0.2012631
 ,-0.2469166,0.2224697,-0.2559656,0.1624258,-0.6287714,0.0696261,-0.050
 5949,-0.0765313,-0.0521722,0.0055545,0.0274072,-0.0318286,0.0015252,0.
 4603477,-0.1961598,-0.0118136,-0.1394212,-0.011293,-0.2210215,0.090305
 2,-0.1572216,0.1015203,-0.5884888,1.5732497,-0.6984359,0.1875432,-0.70
 05706,0.7623441,-0.1633499,0.2492343,-0.1977591,2.0975312,-0.6509342,0
 .14669,0.1191547,0.1482574,-0.4702936,-0.0324037,0.066572,-0.0030806,-
 1.4731789,-1.220668,0.489611,-0.0961282,0.4898337,-0.6476206,0.058149,
 -0.0898448,0.0544917,-0.4707276,0.0138,0.0447209,-0.0030391,0.0436781,
 0.0657999,0.0032487,0.0707135,-0.03949,-0.0241063,-0.0131943,0.0291585
 ,-0.0710805,-0.036482,-0.0128317,-0.0466831,-0.0876018,-0.0017812,0.01
 91351,-0.0068342,-0.0359406,0.0048021,0.0296749,-0.0173599,0.0822573,-
 0.0413312,0.0743802,0.0238063,0.083741,0.0487125,0.0221116,0.0489458,0
 .1427685,-0.010413,0.0186828,-0.008356,0.1023731,0.0559188,0.0470549,0
 .0142636,0.0467291,0.1129171,-0.0060449,0.0229275,-0.0112044,0.0832069
 ,0.3681817,-0.025205,0.0655674,-0.0244318,0.3426953,-0.0342846,0.04151
 83,-0.0205863,0.2333011\Polar=84.1527377,-19.2336672,62.1779478,11.413
 2084,-7.9260533,95.6131791\Quadrupole=6.3010104,0.7834186,-7.0844291,-
 4.9330707,4.5636218,-2.435919\PG=C01 [X(C5H6N2O2)]\NImag=0\\0.54634211
 ,0.02432024,0.57226639,-0.04525904,0.02503211,0.60254577,-0.17354521,0
 .06531733,-0.05827009,0.61715542,0.06519199,-0.09884820,0.03563852,-0.
 26461654,0.30924244,-0.05111967,0.03137703,-0.14592182,0.09797354,-0.0
 7457307,0.75227850,-0.00503515,0.00105031,-0.02493987,-0.10951579,0.02
 617097,-0.03119111,0.64187929,0.00029392,-0.00579026,0.01416314,0.0267
 6670,-0.08093730,0.02739970,-0.28236770,0.29819796,-0.00924099,0.00550
 339,-0.00509322,-0.04320019,0.03399357,-0.36081874,-0.12633588,0.05201
 528,0.75482956,0.00640530,-0.00073041,-0.00049783,-0.03044712,0.027579
 98,-0.07779509,-0.28954338,0.12470502,0.00222789,0.56711287,-0.0005675
 6,0.00577453,0.00058005,0.02506592,-0.00289961,0.04635225,0.12553094,-
 0.14194788,-0.00027657,-0.25064568,0.27644503,0.00093634,-0.00012268,-
 0.00507909,-0.00935931,0.00725459,-0.04902813,-0.02171973,0.01335756,-
 0.10104978,0.07638995,-0.06329625,0.74122849,-0.00001533,0.00124753,0.
 00571950,-0.09546129,0.06111235,0.00394355,-0.02390193,0.01974895,0.01
 522814,-0.12523287,0.02890401,0.07952290,0.71694366,0.00123845,0.00195
 594,-0.00294952,0.06193688,-0.02342576,-0.00166015,0.01787199,0.001698
 34,-0.00852541,0.02970898,-0.08554209,-0.03911074,-0.32078037,0.333168
 43,0.00715075,-0.00401937,-0.00452630,-0.02463180,0.01492886,-0.006461
 67,0.07317484,-0.04161044,0.00769070,0.05412713,-0.02469424,-0.2600968
 1,-0.05084336,0.01336287,0.62817649,-0.03085057,0.01404540,0.01749852,
 -0.17318912,0.05199276,0.08926432,-0.02432155,0.02295589,0.04676569,0.
 01289174,0.00805323,-0.06562317,-0.21903515,0.08699988,-0.13813233,0.4
 3619825,0.01465397,-0.01391170,-0.01080522,0.05367087,-0.10530070,-0.0
 4794045,0.02405410,0.00559174,-0.02313681,0.00567760,0.01866287,0.0405
 0094,0.08636385,-0.12617854,0.08438581,-0.18923457,0.21701578,-0.01139
 753,0.00576668,0.01869762,0.04579426,-0.02315808,-0.16847555,0.0121823
 7,-0.00349209,-0.08743142,0.00641484,-0.00058966,-0.07110632,-0.118970
 19,0.07344279,-0.24892097,0.06162598,-0.04966480,0.55610148,-0.0002584
 7,0.00191670,-0.00108095,-0.00718706,0.00636925,0.00858471,-0.01252032
 ,0.00596120,-0.02921582,-0.12216886,0.02837841,-0.06295804,0.01044784,
 -0.00980215,-0.00448603,0.00949834,-0.00098756,0.01115907,0.55883947,0
 .00196258,0.00186021,0.00068517,0.00661518,0.00097603,-0.00550010,0.00
 565192,-0.00750298,0.01680239,0.02802245,-0.09315868,0.03995154,-0.009
 60010,-0.00168226,0.00326233,-0.00110832,0.00925533,-0.00602448,-0.189
 42497,0.32681753,-0.00332577,0.00205037,0.00018939,0.00267564,-0.00224
 163,0.02329873,-0.01984764,0.01151142,-0.00880792,-0.05134680,0.033324
 97,-0.20257643,-0.01107980,0.00700829,-0.02838045,0.01487857,-0.008162
 83,-0.00135936,-0.10977452,0.03783834,0.97751218,0.00000626,-0.0001467
 8,0.00019270,0.00098854,-0.00052635,0.00223135,-0.00239090,0.00117820,
 -0.00086809,0.02133994,0.00033230,-0.00321672,-0.00050384,0.00302974,-
 0.00116659,0.00047015,-0.00175999,-0.00291677,-0.18801472,0.05367787,0
 .20355976,0.20434477,-0.00020386,-0.00014363,-0.00013325,-0.00048761,0
 .00051729,-0.00092789,0.00081802,-0.00085303,0.00028177,-0.00007236,0.
 02162113,0.00476270,0.00319980,0.00290856,0.00057376,-0.00161711,-0.00
 192238,0.00174939,0.05372051,-0.10952534,-0.09764784,-0.08771149,0.080
 71145,0.00169613,-0.00101395,0.00048614,0.00120470,-0.00029961,-0.0102
 9692,0.01013026,-0.00600330,0.00622205,0.00890987,-0.00213489,-0.06875
 110,-0.00635313,0.00352518,0.00746139,-0.00727816,0.00424170,-0.005572
 55,0.20228716,-0.09694101,-0.64193552,-0.26870468,0.13048631,0.7271526
 7,0.00096390,-0.00082036,-0.00007544,-0.00022276,0.00009139,-0.0057860
 8,0.00558157,-0.00200852,-0.00006498,-0.02998717,0.02449355,-0.0112291
 5,-0.00192835,0.00110476,0.00559441,-0.00371824,0.00198996,-0.00236053
 ,-0.22432565,0.08932145,0.01817571,-0.04262709,0.03937963,0.05627076,0
 .38326722,-0.00083933,0.00001646,0.00003790,-0.00001323,-0.00053974,0.
 00334480,-0.00203863,0.00322416,0.00024530,0.02525742,-0.00227394,0.00
 667367,0.00131706,-0.00030674,-0.00317432,0.00192282,-0.00150271,0.001
 31779,0.09024920,-0.11777720,-0.00835101,0.03902049,0.00844400,-0.0308
 4139,-0.19990577,0.15442450,0.00074289,-0.00043556,-0.00017734,-0.0032
 2230,0.00189429,-0.00187369,0.00108007,-0.00041263,-0.00433119,-0.0352
 0602,0.02034928,0.00363685,-0.00077002,0.00045345,-0.00012797,-0.00027
 907,0.00013097,0.00046084,-0.00984172,0.00762574,-0.12858724,0.0671170
 9,-0.03702996,-0.00793559,0.09669879,-0.07264660,0.57638308,-0.1524318
 9,0.05860283,0.11402116,-0.02101904,0.01027698,0.02219025,0.00119991,-
 0.00057170,0.00133620,-0.00039234,0.00006089,-0.00009152,-0.00107821,0
 .00091278,0.00097691,-0.00214753,0.00186891,-0.00470887,0.00002129,-0.
 00009419,0.00033273,0.00007015,-0.00004190,-0.00024195,0.00001130,0.00
 000364,-0.00005073,0.16945807,0.05843482,-0.08184240,-0.06421297,0.010
 89346,-0.00849358,-0.01293736,-0.00050691,0.00062393,-0.00080811,0.000
 08718,-0.00033054,0.00004559,0.00098089,0.00007226,-0.00053600,0.00157
 503,-0.00033033,0.00274681,-0.00007917,-0.00006436,-0.00021000,-0.0000
 5423,0.00000911,0.00014314,0.00000110,0.00001163,0.00003022,-0.0701176
 4,0.08504084,0.12661615,-0.07141678,-0.19367680,-0.01392259,0.00780596
 ,0.01290268,-0.00078100,0.00044306,0.00064591,0.00016657,-0.00008736,0
 .00035328,-0.00124539,0.00070305,0.00064076,-0.00170452,0.00107245,-0.
 00181972,-0.00006269,0.00002395,-0.00000744,0.00003172,-0.00001726,0.0
 0001887,0.00004717,-0.00002668,0.00001627,-0.12862648,0.07250701,0.203
 16147,-0.10581067,-0.08407222,-0.06844421,-0.01972782,-0.01047430,-0.0
 2412453,-0.00093213,-0.00185463,0.00393114,-0.00222976,0.00152521,-0.0
 0016762,-0.00082139,0.00058920,-0.00226093,0.00371167,-0.00185340,-0.0
 0000196,0.00042490,0.00028593,0.00110906,0.00002759,-0.00005554,-0.000
 42684,-0.00034183,0.00013968,-0.00021376,0.01226641,0.01394838,0.01127
 746,0.11789938,-0.08958820,-0.17713075,-0.11001726,0.01315626,0.013764
 11,0.01528570,0.00144655,0.00035040,-0.00080271,0.00076130,-0.00096612
 ,0.00072707,0.00008608,0.00005913,0.00084550,-0.00141997,0.00109672,0.
 00013394,-0.00024048,-0.00035751,-0.00047362,-0.00001315,0.00006761,0.
 00019930,0.00017676,-0.00003135,0.00009698,-0.00474161,-0.00642095,-0.
 00376501,0.09022810,0.18488772,-0.07140036,-0.10428453,-0.13740887,-0.
 01178677,-0.00641597,-0.01428100,-0.00192246,-0.00061707,0.00119443,-0
 .00019519,0.00111956,0.00005067,-0.00032339,0.00065980,-0.00085824,0.0
 0170207,-0.00091384,0.00051864,0.00011290,0.00009827,0.00043730,-0.000
 01011,0.00004304,-0.00021093,-0.00015238,0.00006405,-0.00015025,-0.010
 77306,-0.01394868,-0.01117520,0.08592288,0.11236733,0.14938572,-0.0856
 3565,-0.07991230,0.06051599,0.00467970,0.02723911,-0.02457876,-0.00006
 803,0.00203927,0.00269481,-0.00219049,0.00074180,-0.00079981,-0.000330
 35,0.00040106,-0.00180308,0.00310317,-0.00172877,-0.00011321,-0.000217
 53,-0.00062757,0.00090393,0.00009779,0.00004167,-0.00036762,-0.0002388
 1,0.00023570,-0.00018427,-0.00590369,-0.01543376,0.00861900,-0.0046778
 6,-0.00980303,0.00905881,0.09144273,-0.07402766,-0.20316002,0.11241097
 ,0.00291001,-0.01081926,0.01347048,-0.00101218,-0.00075285,-0.00307415
 ,0.00148537,-0.00083568,-0.00020862,0.00075902,-0.00038712,0.00150515,
 -0.00222400,0.00169472,-0.00009941,-0.00002601,0.00027921,-0.00069307,
 -0.00002815,-0.00000563,0.00025722,0.00018827,-0.00013081,0.00013622,0
 .00354478,0.01150772,-0.00746993,-0.00861469,-0.01525696,0.01230956,0.
 07701291,0.21767282,0.05393251,0.11207221,-0.13196623,0.00023119,0.013
 84085,-0.01416852,-0.00059738,0.00199125,0.00118720,-0.00100486,-0.000
 42170,-0.00006901,-0.00066322,-0.00006731,-0.00080946,0.00162384,-0.00
 103289,0.00057289,-0.00003767,-0.00016166,0.00042106,-0.00003832,-0.00
 000173,-0.00020631,-0.00012997,0.00010560,-0.00014752,0.00675889,0.016
 50559,-0.01081854,-0.00651170,-0.01464736,0.01235108,-0.05384568,-0.12
 860708,0.14346086,-0.00010542,-0.00157926,-0.00006139,0.00704236,-0.00
 483191,-0.00734952,-0.18136306,0.08069401,0.13834197,-0.00260681,0.002
 79312,0.01627901,-0.00308471,0.00386393,-0.00010185,0.00216907,0.00291
 766,-0.00310351,-0.00107525,-0.00084680,0.00212263,0.00093932,-0.00060
 167,-0.00104249,0.00031813,-0.00018865,-0.00051620,0.00013112,0.000143
 83,-0.00021039,0.00005517,0.00005227,-0.00019416,0.00008822,0.00000525
 ,0.00022009,0.17727943,-0.00164645,-0.00192737,-0.00004471,-0.00577955
 ,0.00128551,0.00470118,0.08096355,-0.07566933,-0.07348535,0.00344268,0
 .00158682,-0.00948078,0.00395550,0.00143821,0.00019323,0.00287247,0.00
 539308,0.00211925,-0.00079165,-0.00194913,-0.00133487,-0.00065026,0.00
 017465,0.00062228,-0.00021605,0.00007112,0.00030125,0.00017015,0.00025
 898,0.00011599,-0.00000340,0.00012794,-0.00038271,0.00007450,0.0000832
 5,0.00033916,-0.08281569,0.06839501,0.00128848,-0.00087375,0.00070525,
 0.02202794,-0.01211135,-0.01580430,0.12987570,-0.06861172,-0.19789495,
 -0.00335700,0.00170743,0.00946509,-0.00274963,0.00170057,-0.00046731,-
 0.00182931,0.00140414,-0.00388810,0.00032109,-0.00030407,0.00131573,0.
 00044974,-0.00023032,-0.00097502,0.00035893,-0.00019798,-0.00024839,-0
 .00074299,0.00045249,-0.00004287,-0.00012333,0.00009250,0.00012593,-0.
 00013869,0.00006640,0.00016295,-0.14535641,0.07688492,0.20677902,0.000
 14085,0.00081352,0.00084249,0.00086494,0.00436506,-0.00278369,0.001047
 55,0.00176312,-0.00009353,0.00044884,0.00103659,-0.00143208,-0.2561626
 2,0.12328183,0.08226154,-0.01516301,0.00448323,0.00616013,-0.00093295,
 -0.00037736,0.00032887,0.00006035,-0.00006288,0.00019388,-0.00013484,0
 .00004481,-0.00042091,-0.00020674,0.00013204,-0.00020630,0.00015447,-0
 .00011958,-0.00002742,-0.00017881,0.00005615,0.00004296,0.00032089,0.0
 0033506,0.00002973,0.26961450,0.00083387,0.00112832,-0.00047019,0.0044
 8443,0.00578295,0.00193921,0.00171421,0.00315069,0.00037495,0.00036653
 ,0.00195389,0.00084337,0.12306865,-0.10353300,-0.04492967,0.00529933,-
 0.00982556,-0.00411713,-0.00044740,-0.00131303,-0.00027381,-0.00002708
 ,-0.00002025,-0.00010771,0.00007375,-0.00012999,0.00024103,0.00013053,
 -0.00005763,0.00011177,0.00026061,-0.00021592,-0.00006756,-0.00031693,
 0.00011656,0.00005991,0.00030481,0.00073806,-0.00001309,-0.13565808,0.
 10221778,-0.00051459,0.00031190,0.00123138,-0.00556471,0.00349780,-0.0
 0178075,0.00111214,-0.00029425,-0.00632654,0.01959774,-0.01112397,0.00
 123150,0.08828003,-0.04835717,-0.09325819,-0.01867326,0.01000888,0.012
 13866,0.00235329,-0.00142420,0.00096033,-0.00089891,0.00051362,-0.0000
 7408,-0.00124795,0.00071259,-0.00011708,-0.00038877,0.00022684,-0.0001
 9537,0.00000678,-0.00003409,0.00000856,0.00001569,0.00001671,0.0000160
 1,0.00101780,-0.00057758,0.00080848,-0.08483136,0.04637579,0.08529375,
 -0.00017006,-0.00005253,-0.00016153,-0.00041575,0.00005928,0.00054073,
 -0.00011610,0.00069627,-0.00150637,-0.00339990,0.00429727,0.00346896,0
 .00016452,-0.00035695,0.00014040,0.00038277,-0.00011586,0.00023592,-0.
 02253102,0.01654193,-0.04871235,0.00519169,-0.00630520,0.00372210,-0.0
 8661738,0.04479479,-0.11493384,0.00002120,-0.00000503,0.00000128,0.000
 00187,0.00001870,-0.00001137,0.00002962,-0.00002906,0.00001931,-0.0001
 0845,0.00008914,-0.00005425,0.00012658,-0.00008721,-0.00026393,0.10744
 042,-0.00005679,-0.00024751,0.00008525,0.00007989,-0.00030418,-0.00033
 133,0.00065288,0.00061639,0.00089246,0.00435395,0.00191027,-0.00189797
 ,-0.00036321,-0.00024536,-0.00009347,-0.00011283,0.00026168,-0.0001310
 1,0.01520411,-0.00585782,0.02765529,-0.00632110,-0.00198354,-0.0021332
 8,0.04613008,-0.04349940,0.07926531,-0.00000446,0.00001532,-0.00000023
 ,-0.00004894,0.00002592,-0.00003123,0.00003635,-0.00000594,0.00002517,
 0.00008910,-0.00000677,0.00003383,-0.00009351,0.00000713,0.00014715,-0
 .05954553,0.04931381,-0.00010531,0.00005294,-0.00000587,0.00005049,-0.
 00005475,0.00043116,-0.00022029,0.00016007,-0.00001611,0.00156878,-0.0
 0080891,0.00179078,0.00030401,-0.00018569,-0.00006197,0.00016083,-0.00
 008804,0.00008387,-0.00736079,0.00406779,0.00751964,0.00423782,-0.0024
 2236,-0.00538309,-0.15609928,0.10273628,-0.43680078,0.00000822,-0.0000
 0456,-0.00000329,0.00002757,-0.00000828,0.00001217,0.00002289,-0.00002
 045,0.00001353,-0.00004558,0.00002873,-0.00004153,-0.00006431,0.000033
 13,0.00006333,0.15751494,-0.10348593,0.43239816\\-0.00007610,0.0000545
 3,-0.00001450,-0.00006201,0.00000561,0.00008054,-0.00025253,0.00017798
 ,-0.00016655,0.00028297,-0.00014066,0.00046124,0.00018548,-0.00007632,
 -0.00016442,-0.00003610,-0.00000284,-0.00002834,-0.00004968,-0.0001059
 8,-0.00038985,-0.00005094,0.00007919,0.00020444,0.00001929,0.00003168,
 -0.00002302,-0.00000025,-0.00000604,-0.00000395,0.00002041,0.00000391,
 -0.00000521,0.00000090,-0.00000500,0.00000017,0.00003093,-0.00002116,0
 .00002736,0.00001156,-0.00000972,0.00001617,-0.00002392,0.00001483,0.0
 0000592\\\@
 The archive entry for this job was punched.


 I think that all right-thinking people in this
 country are sick and tired of being told that
 ordinary, decent people are fed up in this country
 with being sick and tired.  I'm certainly not!
 But I'm sick and tired of being told that I am!
                               -- Monty Python
 Job cpu time:       0 days  9 hours 44 minutes 43.2 seconds.
 Elapsed time:       0 days  0 hours 29 minutes 15.1 seconds.
 File lengths (MBytes):  RWF=    335 Int=      0 D2E=      0 Chk=     25 Scr=      1
 Normal termination of Gaussian 16 at Tue Mar  4 18:06:10 2025.
