 Entering Gaussian System, Link 0=g16
 Initial command:
 /usr/local/gaussian16c01/g16/l1.exe "/scr/dhuang/Gau-447574.inp" -scrdir="/scr/dhuang/"
 Entering Link 1 = /usr/local/gaussian16c01/g16/l1.exe PID=    447575.
  
 Copyright (c) 1988-2019, Gaussian, Inc.  All Rights Reserved.
  
 This is part of the Gaussian(R) 16 program.  It is based on
 the Gaussian(R) 09 system (copyright 2009, Gaussian, Inc.),
 the Gaussian(R) 03 system (copyright 2003, Gaussian, Inc.),
 the Gaussian(R) 98 system (copyright 1998, Gaussian, Inc.),
 the Gaussian(R) 94 system (copyright 1995, Gaussian, Inc.),
 the Gaussian 92(TM) system (copyright 1992, Gaussian, Inc.),
 the Gaussian 90(TM) system (copyright 1990, Gaussian, Inc.),
 the Gaussian 88(TM) system (copyright 1988, Gaussian, Inc.),
 the Gaussian 86(TM) system (copyright 1986, Carnegie Mellon
 University), and the Gaussian 82(TM) system (copyright 1983,
 Carnegie Mellon University). Gaussian is a federally registered
 trademark of Gaussian, Inc.
  
 This software contains proprietary and confidential information,
 including trade secrets, belonging to Gaussian, Inc.
  
 This software is provided under written license and may be
 used, copied, transmitted, or stored only in accord with that
 written license.
  
 The following legend is applicable only to US Government
 contracts under FAR:
  
                    RESTRICTED RIGHTS LEGEND
  
 Use, reproduction and disclosure by the US Government is
 subject to restrictions as set forth in subparagraphs (a)
 and (c) of the Commercial Computer Software - Restricted
 Rights clause in FAR 52.227-19.
  
 Gaussian, Inc.
 340 Quinnipiac St., Bldg. 40, Wallingford CT 06492
  
  
 ---------------------------------------------------------------
 Warning -- This program may not be used in any manner that
 competes with the business of Gaussian, Inc. or will provide
 assistance to any competitor of Gaussian, Inc.  The licensee
 of this program is prohibited from giving any competitor of
 Gaussian, Inc. access to this program.  By using this program,
 the user acknowledges that Gaussian, Inc. is engaged in the
 business of creating and licensing software in the field of
 computational chemistry and represents and warrants to the
 licensee that it is not a competitor of Gaussian, Inc. and that
 it will not use this program in any manner prohibited above.
 ---------------------------------------------------------------
  

 Cite this work as:
 Gaussian 16, Revision C.01,
 M. J. Frisch, G. W. Trucks, H. B. Schlegel, G. E. Scuseria, 
 M. A. Robb, J. R. Cheeseman, G. Scalmani, V. Barone, 
 G. A. Petersson, H. Nakatsuji, X. Li, M. Caricato, A. V. Marenich, 
 J. Bloino, B. G. Janesko, R. Gomperts, B. Mennucci, H. P. Hratchian, 
 J. V. Ortiz, A. F. Izmaylov, J. L. Sonnenberg, D. Williams-Young, 
 F. Ding, F. Lipparini, F. Egidi, J. Goings, B. Peng, A. Petrone, 
 T. Henderson, D. Ranasinghe, V. G. Zakrzewski, J. Gao, N. Rega, 
 G. Zheng, W. Liang, M. Hada, M. Ehara, K. Toyota, R. Fukuda, 
 J. Hasegawa, M. Ishida, T. Nakajima, Y. Honda, O. Kitao, H. Nakai, 
 T. Vreven, K. Throssell, J. A. Montgomery, Jr., J. E. Peralta, 
 F. Ogliaro, M. J. Bearpark, J. J. Heyd, E. N. Brothers, K. N. Kudin, 
 V. N. Staroverov, T. A. Keith, R. Kobayashi, J. Normand, 
 K. Raghavachari, A. P. Rendell, J. C. Burant, S. S. Iyengar, 
 J. Tomasi, M. Cossi, J. M. Millam, M. Klene, C. Adamo, R. Cammi, 
 J. W. Ochterski, R. L. Martin, K. Morokuma, O. Farkas, 
 J. B. Foresman, and D. J. Fox, Gaussian, Inc., Wallingford CT, 2019.
 
 ******************************************
 Gaussian 16:  ES64L-G16RevC.01  3-Jul-2019
                 4-Mar-2025 
 ******************************************
 %nprocshared=20
 Will use up to   20 processors via shared memory.
 %mem=10000MW
 %chk=7.chk
 ------------------------------------
 # opt freq m062x/aug-cc-pvtz pop=nbo
 ------------------------------------
 1/18=20,19=15,26=3,38=1/1,3;
 2/9=110,12=2,17=6,18=5,40=1/2;
 3/5=16,6=1,7=10,11=2,25=1,30=1,71=1,74=-55/1,2,3;
 4//1;
 5/5=2,38=5/2;
 6/7=2,8=2,9=2,10=2,28=1,40=1/1,7;
 7//1,2,3,16;
 1/18=20,19=15,26=3/3(2);
 2/9=110/2;
 99//99;
 2/9=110/2;
 3/5=16,6=1,7=10,11=2,25=1,30=1,71=1,74=-55/1,2,3;
 4/5=5,16=3,69=1/1;
 5/5=2,38=5/2;
 7//1,2,3,16;
 1/18=20,19=15,26=3/3(-5);
 2/9=110/2;
 6/7=2,8=2,9=2,10=2,19=2,28=1,40=1/1,7;
 99/9=1/99;
 -
 7
 -
 Symbolic Z-matrix:
 Charge =  0 Multiplicity = 1
 C                     1.00701  -2.90708   3.14049 
 N                    -0.15995  -2.2551    2.51647 
 N                    -1.10901  -1.77032   3.13703 
 C                    -1.90387  -1.30538   2.26998 
 C                    -3.17094  -0.64231   2.72679 
 C                    -1.39583  -1.52699   1.04377 
 C                    -0.22505  -2.16648   1.24643 
 C                     0.74756  -2.64925   0.20112 
 C                    -1.9568   -1.1742   -0.1461 
 O                    -1.40818  -1.42352  -1.20215 
 O                    -3.1494   -0.53     -0.1988 
 H                     1.94885  -2.37021   2.88482 
 H                     0.91236  -2.8911    4.25023 
 H                     1.07868  -3.9753    2.833 
 H                    -4.06167  -1.18191   2.33283 
 H                    -3.25658  -0.64178   3.83709 
 H                    -3.19925   0.42131   2.39857 
 H                     0.26332  -3.39142  -0.47293 
 H                     1.13708  -1.79467  -0.39682 
 H                     1.63505  -3.15712   0.63476 
 H                    -3.39865  -0.35662  -1.1167 
 

 GradGradGradGradGradGradGradGradGradGradGradGradGradGradGradGradGradGrad
 Berny optimization.
 Initialization pass.
                           ----------------------------
                           !    Initial Parameters    !
                           ! (Angstroms and Degrees)  !
 --------------------------                            --------------------------
 ! Name  Definition              Value          Derivative Info.                !
 --------------------------------------------------------------------------------
 ! R1    R(1,2)                  1.4752         estimate D2E/DX2                !
 ! R2    R(1,12)                 1.1139         estimate D2E/DX2                !
 ! R3    R(1,13)                 1.1139         estimate D2E/DX2                !
 ! R4    R(1,14)                 1.1139         estimate D2E/DX2                !
 ! R5    R(2,3)                  1.2332         estimate D2E/DX2                !
 ! R6    R(2,7)                  1.2748         estimate D2E/DX2                !
 ! R7    R(3,4)                  1.2648         estimate D2E/DX2                !
 ! R8    R(4,5)                  1.5013         estimate D2E/DX2                !
 ! R9    R(4,6)                  1.3457         estimate D2E/DX2                !
 ! R10   R(5,15)                 1.1134         estimate D2E/DX2                !
 ! R11   R(5,16)                 1.1136         estimate D2E/DX2                !
 ! R12   R(5,17)                 1.1135         estimate D2E/DX2                !
 ! R13   R(6,7)                  1.3493         estimate D2E/DX2                !
 ! R14   R(6,9)                  1.362          estimate D2E/DX2                !
 ! R15   R(7,8)                  1.5072         estimate D2E/DX2                !
 ! R16   R(8,18)                 1.1134         estimate D2E/DX2                !
 ! R17   R(8,19)                 1.1134         estimate D2E/DX2                !
 ! R18   R(8,20)                 1.1107         estimate D2E/DX2                !
 ! R19   R(9,10)                 1.2159         estimate D2E/DX2                !
 ! R20   R(9,11)                 1.3565         estimate D2E/DX2                !
 ! R21   R(11,21)                0.9668         estimate D2E/DX2                !
 ! A1    A(2,1,12)             111.0251         estimate D2E/DX2                !
 ! A2    A(2,1,13)             110.3572         estimate D2E/DX2                !
 ! A3    A(2,1,14)             110.9752         estimate D2E/DX2                !
 ! A4    A(12,1,13)            107.074          estimate D2E/DX2                !
 ! A5    A(12,1,14)            110.1489         estimate D2E/DX2                !
 ! A6    A(13,1,14)            107.112          estimate D2E/DX2                !
 ! A7    A(1,2,3)              124.7259         estimate D2E/DX2                !
 ! A8    A(1,2,7)              119.5074         estimate D2E/DX2                !
 ! A9    A(3,2,7)              115.7665         estimate D2E/DX2                !
 ! A10   A(2,3,4)              106.4504         estimate D2E/DX2                !
 ! A11   A(3,4,5)              118.9583         estimate D2E/DX2                !
 ! A12   A(3,4,6)              109.0788         estimate D2E/DX2                !
 ! A13   A(5,4,6)              131.9628         estimate D2E/DX2                !
 ! A14   A(4,5,15)             110.7002         estimate D2E/DX2                !
 ! A15   A(4,5,16)             111.6229         estimate D2E/DX2                !
 ! A16   A(4,5,17)             110.7117         estimate D2E/DX2                !
 ! A17   A(15,5,16)            106.9466         estimate D2E/DX2                !
 ! A18   A(15,5,17)            109.7723         estimate D2E/DX2                !
 ! A19   A(16,5,17)            106.9472         estimate D2E/DX2                !
 ! A20   A(4,6,7)              105.5906         estimate D2E/DX2                !
 ! A21   A(4,6,9)              126.722          estimate D2E/DX2                !
 ! A22   A(7,6,9)              127.6873         estimate D2E/DX2                !
 ! A23   A(2,7,6)              103.1136         estimate D2E/DX2                !
 ! A24   A(2,7,8)              129.4741         estimate D2E/DX2                !
 ! A25   A(6,7,8)              127.4121         estimate D2E/DX2                !
 ! A26   A(7,8,18)             110.6537         estimate D2E/DX2                !
 ! A27   A(7,8,19)             110.6329         estimate D2E/DX2                !
 ! A28   A(7,8,20)             113.0365         estimate D2E/DX2                !
 ! A29   A(18,8,19)            109.7962         estimate D2E/DX2                !
 ! A30   A(18,8,20)            106.2054         estimate D2E/DX2                !
 ! A31   A(19,8,20)            106.3264         estimate D2E/DX2                !
 ! A32   A(6,9,10)             121.321          estimate D2E/DX2                !
 ! A33   A(6,9,11)             121.2704         estimate D2E/DX2                !
 ! A34   A(10,9,11)            117.4086         estimate D2E/DX2                !
 ! A35   A(9,11,21)            110.4085         estimate D2E/DX2                !
 ! D1    D(12,1,2,3)          -119.0392         estimate D2E/DX2                !
 ! D2    D(12,1,2,7)            60.8486         estimate D2E/DX2                !
 ! D3    D(13,1,2,3)            -0.4764         estimate D2E/DX2                !
 ! D4    D(13,1,2,7)           179.4113         estimate D2E/DX2                !
 ! D5    D(14,1,2,3)           118.102          estimate D2E/DX2                !
 ! D6    D(14,1,2,7)           -62.0103         estimate D2E/DX2                !
 ! D7    D(1,2,3,4)            179.8733         estimate D2E/DX2                !
 ! D8    D(7,2,3,4)             -0.0183         estimate D2E/DX2                !
 ! D9    D(1,2,7,6)           -179.8735         estimate D2E/DX2                !
 ! D10   D(1,2,7,8)              0.2421         estimate D2E/DX2                !
 ! D11   D(3,2,7,6)              0.024          estimate D2E/DX2                !
 ! D12   D(3,2,7,8)           -179.8604         estimate D2E/DX2                !
 ! D13   D(2,3,4,5)           -179.998          estimate D2E/DX2                !
 ! D14   D(2,3,4,6)              0.0038         estimate D2E/DX2                !
 ! D15   D(3,4,5,15)          -118.9346         estimate D2E/DX2                !
 ! D16   D(3,4,5,16)             0.0758         estimate D2E/DX2                !
 ! D17   D(3,4,5,17)           119.0945         estimate D2E/DX2                !
 ! D18   D(6,4,5,15)            61.0631         estimate D2E/DX2                !
 ! D19   D(6,4,5,16)          -179.9265         estimate D2E/DX2                !
 ! D20   D(6,4,5,17)           -60.9079         estimate D2E/DX2                !
 ! D21   D(3,4,6,7)              0.0102         estimate D2E/DX2                !
 ! D22   D(3,4,6,9)           -179.9945         estimate D2E/DX2                !
 ! D23   D(5,4,6,7)           -179.9877         estimate D2E/DX2                !
 ! D24   D(5,4,6,9)              0.0076         estimate D2E/DX2                !
 ! D25   D(4,6,7,2)             -0.0193         estimate D2E/DX2                !
 ! D26   D(4,6,7,8)            179.8684         estimate D2E/DX2                !
 ! D27   D(9,6,7,2)            179.9855         estimate D2E/DX2                !
 ! D28   D(9,6,7,8)             -0.1269         estimate D2E/DX2                !
 ! D29   D(4,6,9,10)           179.9331         estimate D2E/DX2                !
 ! D30   D(4,6,9,11)            -0.0244         estimate D2E/DX2                !
 ! D31   D(7,6,9,10)            -0.0726         estimate D2E/DX2                !
 ! D32   D(7,6,9,11)           179.9699         estimate D2E/DX2                !
 ! D33   D(2,7,8,18)           119.4184         estimate D2E/DX2                !
 ! D34   D(2,7,8,19)          -118.6655         estimate D2E/DX2                !
 ! D35   D(2,7,8,20)             0.4464         estimate D2E/DX2                !
 ! D36   D(6,7,8,18)           -60.4398         estimate D2E/DX2                !
 ! D37   D(6,7,8,19)            61.4762         estimate D2E/DX2                !
 ! D38   D(6,7,8,20)          -179.4119         estimate D2E/DX2                !
 ! D39   D(6,9,11,21)          180.0            estimate D2E/DX2                !
 ! D40   D(10,9,11,21)           0.0409         estimate D2E/DX2                !
 --------------------------------------------------------------------------------
 Trust Radius=3.00D-01 FncErr=1.00D-07 GrdErr=1.00D-06 EigMax=2.50D+02 EigMin=1.00D-04
 Number of steps in this run=    106 maximum allowed number of steps=    126.
 GradGradGradGradGradGradGradGradGradGradGradGradGradGradGradGradGradGrad

                          Input orientation:                          
 ---------------------------------------------------------------------
 Center     Atomic      Atomic             Coordinates (Angstroms)
 Number     Number       Type             X           Y           Z
 ---------------------------------------------------------------------
      1          6           0        1.007006   -2.907078    3.140485
      2          7           0       -0.159954   -2.255099    2.516474
      3          7           0       -1.109006   -1.770325    3.137030
      4          6           0       -1.903865   -1.305378    2.269979
      5          6           0       -3.170937   -0.642312    2.726786
      6          6           0       -1.395827   -1.526986    1.043766
      7          6           0       -0.225052   -2.166482    1.246426
      8          6           0        0.747563   -2.649248    0.201121
      9          6           0       -1.956800   -1.174200   -0.146100
     10          8           0       -1.408181   -1.423523   -1.202145
     11          8           0       -3.149400   -0.530000   -0.198800
     12          1           0        1.948852   -2.370208    2.884823
     13          1           0        0.912364   -2.891100    4.250235
     14          1           0        1.078678   -3.975298    2.833000
     15          1           0       -4.061667   -1.181908    2.332829
     16          1           0       -3.256576   -0.641782    3.837094
     17          1           0       -3.199251    0.421310    2.398565
     18          1           0        0.263323   -3.391424   -0.472934
     19          1           0        1.137084   -1.794666   -0.396818
     20          1           0        1.635053   -3.157124    0.634764
     21          1           0       -3.398655   -0.356623   -1.116696
 ---------------------------------------------------------------------
                    Distance matrix (angstroms):
                    1          2          3          4          5
     1  C    0.000000
     2  N    1.475216   0.000000
     3  N    2.402026   1.233205   0.000000
     4  C    3.434588   2.000989   1.264814   0.000000
     5  C    4.770275   3.422182   2.385848   1.501266   0.000000
     6  C    3.474838   2.055821   2.126790   1.345664   2.601196
     7  C    2.377795   1.274799   2.124311   2.146527   3.632189
     8  C    2.962034   2.517896   3.583143   3.621634   5.075570
     9  C    4.752753   3.389145   3.442828   2.420217   3.163939
    10  O    5.185798   4.009704   4.363281   3.509318   4.376540
    11  O    5.837554   4.391522   4.102362   2.871836   2.927820
    12  H    1.113852   2.143827   3.126333   4.044171   5.405815
    13  H    1.113892   2.135483   2.565404   3.790392   4.904212
    14  H    1.113902   2.143241   3.120946   4.042404   5.401788
    15  H    5.414791   4.050781   3.116276   2.162245   1.113448
    16  H    4.878008   3.733081   2.525026   2.173944   1.113606
    17  H    5.414907   4.051468   3.117325   2.162408   1.113473
    18  H    3.720813   3.225982   4.188447   4.070855   5.439666
    19  H    3.710376   3.222045   4.187313   4.074135   5.444618
    20  H    2.595304   2.752551   3.964141   4.315882   5.813638
    21  H    6.636133   5.224301   5.033412   3.821532   3.860807
                    6          7          8          9         10
     6  C    0.000000
     7  C    1.349349   0.000000
     8  C    2.561961   1.507217   0.000000
     9  C    1.361958   2.433661   3.099985   0.000000
    10  O    2.248327   2.819093   2.849349   1.215885   0.000000
    11  O    2.369170   3.649461   4.453927   1.356490   2.199302
    12  H    3.909909   2.729781   2.953508   5.086358   5.373005
    13  H    4.179713   3.292666   4.059676   5.523369   6.104684
    14  H    3.913920   2.736557   2.965608   5.092673   5.383161
    15  H    2.981185   4.107222   5.461314   3.252017   4.426670
    16  H    3.471117   4.269240   5.769172   4.223591   5.424170
    17  H    2.980549   4.107305   5.462090   3.250332   4.424529
    18  H    2.920494   2.166839   1.113402   3.154655   2.682967
    19  H    2.926187   2.166543   1.113359   3.165431   2.695306
    20  H    3.465671   2.194423   1.110686   4.176499   3.954856
    21  H    3.169963   4.351057   4.917712   1.920790   2.259992
                   11         12         13         14         15
    11  O    0.000000
    12  H    6.235965   0.000000
    13  H    6.470443   1.791643   0.000000
    14  H    6.240075   1.826528   1.792122   0.000000
    15  H    2.768819   6.151673   5.598104   5.871656   0.000000
    16  H    4.038864   5.566934   4.755016   5.560122   1.789615
    17  H    2.766547   5.876391   5.595187   6.149762   1.821645
    18  H    4.462014   3.893381   4.793735   3.454694   5.608904
    19  H    4.473537   3.429195   4.779933   3.897472   5.903681
    20  H    5.521558   2.404261   3.696576   2.410644   6.263986
    21  H    0.966810   6.975851   7.335694   6.981506   3.608311
                   16         17         18         19         20
    16  H    0.000000
    17  H    1.789642   0.000000
    18  H    6.206976   5.896767   0.000000
    19  H    6.209621   5.615025   1.821781   0.000000
    20  H    6.364739   6.267909   1.778633   1.780008   0.000000
    21  H    4.964025   3.605829   4.799430   4.812392   6.020684
                   21
    21  H    0.000000
 Stoichiometry    C7H10N2O2
 Framework group  C1[X(C7H10N2O2)]
 Deg. of freedom    57
 Full point group                 C1      NOp   1
 Largest Abelian subgroup         C1      NOp   1
 Largest concise Abelian subgroup C1      NOp   1
                         Standard orientation:                         
 ---------------------------------------------------------------------
 Center     Atomic      Atomic             Coordinates (Angstroms)
 Number     Number       Type             X           Y           Z
 ---------------------------------------------------------------------
      1          6           0        3.067256    0.184041   -0.002255
      2          7           0        1.605790    0.384970    0.000317
      3          7           0        1.047888    1.484761    0.000673
      4          6           0       -0.195957    1.255409    0.000424
      5          6           0       -1.148973    2.415392    0.000707
      6          6           0       -0.397910   -0.075014   -0.000034
      7          6           0        0.832645   -0.628617    0.000190
      8          6           0        1.176565   -2.096070    0.002613
      9          6           0       -1.599435   -0.716315   -0.000515
     10          8           0       -1.667953   -1.930267   -0.002119
     11          8           0       -2.766553   -0.025011   -0.000082
     12          1           0        3.392741   -0.370918   -0.911510
     13          1           0        3.593354    1.165811   -0.012510
     14          1           0        3.397239   -0.355067    0.914943
     15          1           0       -1.788308    2.399283    0.912166
     16          1           0       -0.609573    3.389643   -0.000244
     17          1           0       -1.790143    2.398500   -0.909478
     18          1           0        0.766324   -2.594078    0.910001
     19          1           0        0.781086   -2.593222   -0.911719
     20          1           0        2.270844   -2.286000    0.012761
     21          1           0       -3.518410   -0.632820   -0.000524
 ---------------------------------------------------------------------
 Rotational constants (GHZ):           1.7233821           1.0679253           0.6681102
 Standard basis: Aug-CC-pVTZ (5D, 7F)
 There are   855 symmetry adapted cartesian basis functions of A   symmetry.
 There are   736 symmetry adapted basis functions of A   symmetry.
   736 basis functions,  1062 primitive gaussians,   855 cartesian basis functions
    41 alpha electrons       41 beta electrons
       nuclear repulsion energy       643.3493973039 Hartrees.
 NAtoms=   21 NActive=   21 NUniq=   21 SFac= 1.00D+00 NAtFMM=   60 NAOKFM=F Big=F
 Integral buffers will be    131072 words long.
 Raffenetti 2 integral format.
 Two-electron integral symmetry is turned on.
 One-electron integrals computed using PRISM.
 NBasis=   736 RedAO= T EigKep=  1.16D-06  NBF=   736
 NBsUse=   735 1.00D-06 EigRej=  7.70D-07 NBFU=   735
 ExpMin= 2.53D-02 ExpMax= 1.53D+04 ExpMxC= 5.22D+02 IAcc=3 IRadAn=         5 AccDes= 0.00D+00
 Harris functional with IExCor= 1009 and IRadAn=       5 diagonalized for initial guess.
 HarFok:  IExCor= 1009 AccDes= 0.00D+00 IRadAn=         5 IDoV= 1 UseB2=F ITyADJ=14
 ICtDFT=  3500011 ScaDFX=  1.000000  1.000000  1.000000  1.000000
 FoFCou: FMM=F IPFlag=           0 FMFlag=      100000 FMFlg1=           0
         NFxFlg=           0 DoJE=T BraDBF=F KetDBF=T FulRan=T
         wScrn=  0.000000 ICntrl=       500 IOpCl=  0 I1Cent=   200000004 NGrid=           0
         NMat0=    1 NMatS0=      1 NMatT0=    0 NMatD0=    1 NMtDS0=    0 NMtDT0=    0
 Petite list used in FoFCou.
 Requested convergence on RMS density matrix=1.00D-08 within 128 cycles.
 Requested convergence on MAX density matrix=1.00D-06.
 Requested convergence on             energy=1.00D-06.
 No special actions if energy rises.
 SCF Done:  E(RM062X) =  -532.674113374     A.U. after   14 cycles
            NFock= 14  Conv=0.35D-08     -V/T= 2.0034

 **********************************************************************

            Population analysis using the SCF Density.

 **********************************************************************

 Orbital symmetries:
       Occupied  (A) (A) (A) (A) (A) (A) (A) (A) (A) (A) (A) (A)
                 (A) (A) (A) (A) (A) (A) (A) (A) (A) (A) (A) (A)
                 (A) (A) (A) (A) (A) (A) (A) (A) (A) (A) (A) (A)
                 (A) (A) (A) (A) (A)
       Virtual   (A) (A) (A) (A) (A) (A) (A) (A) (A) (A) (A) (A)
                 (A) (A) (A) (A) (A) (A) (A) (A) (A) (A) (A) (A)
                 (A) (A) (A) (A) (A) (A) (A) (A) (A) (A) (A) (A)
                 (A) (A) (A) (A) (A) (A) (A) (A) (A) (A) (A) (A)
                 (A) (A) (A) (A) (A) (A) (A) (A) (A) (A) (A) (A)
                 (A) (A) (A) (A) (A) (A) (A) (A) (A) (A) (A) (A)
                 (A) (A) (A) (A) (A) (A) (A) (A) (A) (A) (A) (A)
                 (A) (A) (A) (A) (A) (A) (A) (A) (A) (A) (A) (A)
                 (A) (A) (A) (A) (A) (A) (A) (A) (A) (A) (A) (A)
                 (A) (A) (A) (A) (A) (A) (A) (A) (A) (A) (A) (A)
                 (A) (A) (A) (A) (A) (A) (A) (A) (A) (A) (A) (A)
                 (A) (A) (A) (A) (A) (A) (A) (A) (A) (A) (A) (A)
                 (A) (A) (A) (A) (A) (A) (A) (A) (A) (A) (A) (A)
                 (A) (A) (A) (A) (A) (A) (A) (A) (A) (A) (A) (A)
                 (A) (A) (A) (A) (A) (A) (A) (A) (A) (A) (A) (A)
                 (A) (A) (A) (A) (A) (A) (A) (A) (A) (A) (A) (A)
                 (A) (A) (A) (A) (A) (A) (A) (A) (A) (A) (A) (A)
                 (A) (A) (A) (A) (A) (A) (A) (A) (A) (A) (A) (A)
                 (A) (A) (A) (A) (A) (A) (A) (A) (A) (A) (A) (A)
                 (A) (A) (A) (A) (A) (A) (A) (A) (A) (A) (A) (A)
                 (A) (A) (A) (A) (A) (A) (A) (A) (A) (A) (A) (A)
                 (A) (A) (A) (A) (A) (A) (A) (A) (A) (A) (A) (A)
                 (A) (A) (A) (A) (A) (A) (A) (A) (A) (A) (A) (A)
                 (A) (A) (A) (A) (A) (A) (A) (A) (A) (A) (A) (A)
                 (A) (A) (A) (A) (A) (A) (A) (A) (A) (A) (A) (A)
                 (A) (A) (A) (A) (A) (A) (A) (A) (A) (A) (A) (A)
                 (A) (A) (A) (A) (A) (A) (A) (A) (A) (A) (A) (A)
                 (A) (A) (A) (A) (A) (A) (A) (A) (A) (A) (A) (A)
                 (A) (A) (A) (A) (A) (A) (A) (A) (A) (A) (A) (A)
                 (A) (A) (A) (A) (A) (A) (A) (A) (A) (A) (A) (A)
                 (A) (A) (A) (A) (A) (A) (A) (A) (A) (A) (A) (A)
                 (A) (A) (A) (A) (A) (A) (A) (A) (A) (A) (A) (A)
                 (A) (A) (A) (A) (A) (A) (A) (A) (A) (A) (A) (A)
                 (A) (A) (A) (A) (A) (A) (A) (A) (A) (A) (A) (A)
                 (A) (A) (A) (A) (A) (A) (A) (A) (A) (A) (A) (A)
                 (A) (A) (A) (A) (A) (A) (A) (A) (A) (A) (A) (A)
                 (A) (A) (A) (A) (A) (A) (A) (A) (A) (A) (A) (A)
                 (A) (A) (A) (A) (A) (A) (A) (A) (A) (A) (A) (A)
                 (A) (A) (A) (A) (A) (A) (A) (A) (A) (A) (A) (A)
                 (A) (A) (A) (A) (A) (A) (A) (A) (A) (A) (A) (A)
                 (A) (A) (A) (A) (A) (A) (A) (A) (A) (A) (A) (A)
                 (A) (A) (A) (A) (A) (A) (A) (A) (A) (A) (A) (A)
                 (A) (A) (A) (A) (A) (A) (A) (A) (A) (A) (A) (A)
                 (A) (A) (A) (A) (A) (A) (A) (A) (A) (A) (A) (A)
                 (A) (A) (A) (A) (A) (A) (A) (A) (A) (A) (A) (A)
                 (A) (A) (A) (A) (A) (A) (A) (A) (A) (A) (A) (A)
                 (A) (A) (A) (A) (A) (A) (A) (A) (A) (A) (A) (A)
                 (A) (A) (A) (A) (A) (A) (A) (A) (A) (A) (A) (A)
                 (A) (A) (A) (A) (A) (A) (A) (A) (A) (A) (A) (A)
                 (A) (A) (A) (A) (A) (A) (A) (A) (A) (A) (A) (A)
                 (A) (A) (A) (A) (A) (A) (A) (A) (A) (A) (A) (A)
                 (A) (A) (A) (A) (A) (A) (A) (A) (A) (A) (A) (A)
                 (A) (A) (A) (A) (A) (A) (A) (A) (A) (A) (A) (A)
                 (A) (A) (A) (A) (A) (A) (A) (A) (A) (A) (A) (A)
                 (A) (A) (A) (A) (A) (A) (A) (A) (A) (A) (A) (A)
                 (A) (A) (A) (A) (A) (A) (A) (A) (A) (A) (A) (A)
                 (A) (A) (A) (A) (A) (A) (A) (A) (A) (A) (A) (A)
                 (A) (A) (A) (A) (A) (A) (A) (A) (A) (A)
 The electronic state is 1-A.
 Alpha  occ. eigenvalues --  -19.65892 -19.59214 -14.84198 -14.75402 -10.66068
 Alpha  occ. eigenvalues --  -10.60024 -10.58109 -10.55525 -10.55457 -10.53191
 Alpha  occ. eigenvalues --  -10.52003  -1.25248  -1.22425  -1.12059  -0.98376
 Alpha  occ. eigenvalues --   -0.94254  -0.84586  -0.82041  -0.79248  -0.74666
 Alpha  occ. eigenvalues --   -0.68504  -0.63116  -0.61944  -0.60597  -0.55902
 Alpha  occ. eigenvalues --   -0.55414  -0.53181  -0.49556  -0.49536  -0.48774
 Alpha  occ. eigenvalues --   -0.48684  -0.47323  -0.46127  -0.45819  -0.44437
 Alpha  occ. eigenvalues --   -0.42455  -0.38986  -0.36982  -0.33919  -0.31889
 Alpha  occ. eigenvalues --   -0.31094
 Alpha virt. eigenvalues --   -0.01214   0.00068   0.00762   0.00779   0.01554
 Alpha virt. eigenvalues --    0.01716   0.02240   0.02665   0.02870   0.03538
 Alpha virt. eigenvalues --    0.04275   0.05011   0.05551   0.06314   0.06846
 Alpha virt. eigenvalues --    0.07033   0.07706   0.08175   0.08405   0.08459
 Alpha virt. eigenvalues --    0.08624   0.08742   0.09352   0.09692   0.10287
 Alpha virt. eigenvalues --    0.10299   0.10815   0.10930   0.10971   0.11861
 Alpha virt. eigenvalues --    0.11935   0.12686   0.12696   0.13705   0.14005
 Alpha virt. eigenvalues --    0.14687   0.14691   0.15501   0.15737   0.16610
 Alpha virt. eigenvalues --    0.16636   0.17536   0.17990   0.18964   0.18987
 Alpha virt. eigenvalues --    0.19310   0.20241   0.20626   0.20821   0.20990
 Alpha virt. eigenvalues --    0.21600   0.21610   0.21655   0.21816   0.22729
 Alpha virt. eigenvalues --    0.23053   0.24012   0.24632   0.25099   0.25444
 Alpha virt. eigenvalues --    0.25640   0.25962   0.26388   0.26998   0.27126
 Alpha virt. eigenvalues --    0.28264   0.28681   0.29253   0.29330   0.29570
 Alpha virt. eigenvalues --    0.30082   0.30155   0.31108   0.31355   0.31740
 Alpha virt. eigenvalues --    0.31888   0.31949   0.33157   0.33262   0.33562
 Alpha virt. eigenvalues --    0.34052   0.34460   0.34536   0.34864   0.35157
 Alpha virt. eigenvalues --    0.35503   0.35806   0.36308   0.36523   0.37175
 Alpha virt. eigenvalues --    0.37320   0.37977   0.38106   0.38625   0.39371
 Alpha virt. eigenvalues --    0.39558   0.40168   0.40470   0.40649   0.41558
 Alpha virt. eigenvalues --    0.41650   0.42551   0.42590   0.43495   0.43917
 Alpha virt. eigenvalues --    0.44018   0.44181   0.44733   0.44861   0.45183
 Alpha virt. eigenvalues --    0.45813   0.46194   0.46315   0.46640   0.47157
 Alpha virt. eigenvalues --    0.47882   0.48467   0.48651   0.49336   0.49615
 Alpha virt. eigenvalues --    0.50661   0.51541   0.52031   0.52370   0.53628
 Alpha virt. eigenvalues --    0.54467   0.55326   0.55520   0.56200   0.56601
 Alpha virt. eigenvalues --    0.57186   0.57438   0.58523   0.59094   0.59285
 Alpha virt. eigenvalues --    0.60005   0.60082   0.61116   0.61474   0.62891
 Alpha virt. eigenvalues --    0.63650   0.64429   0.64744   0.65522   0.66498
 Alpha virt. eigenvalues --    0.66736   0.68433   0.68934   0.69230   0.69749
 Alpha virt. eigenvalues --    0.70478   0.71181   0.71718   0.72288   0.72470
 Alpha virt. eigenvalues --    0.72690   0.72818   0.72881   0.74155   0.74614
 Alpha virt. eigenvalues --    0.74808   0.74930   0.75315   0.76029   0.76831
 Alpha virt. eigenvalues --    0.77103   0.77839   0.79055   0.79567   0.79681
 Alpha virt. eigenvalues --    0.79825   0.80809   0.80911   0.81580   0.81920
 Alpha virt. eigenvalues --    0.82564   0.83233   0.84235   0.84277   0.85196
 Alpha virt. eigenvalues --    0.85262   0.85834   0.86522   0.86583   0.87183
 Alpha virt. eigenvalues --    0.88019   0.88059   0.88347   0.88689   0.89389
 Alpha virt. eigenvalues --    0.89642   0.90466   0.91434   0.91907   0.92364
 Alpha virt. eigenvalues --    0.93025   0.93763   0.94126   0.95497   0.96180
 Alpha virt. eigenvalues --    0.96543   0.96794   0.97209   0.98062   0.98244
 Alpha virt. eigenvalues --    1.00211   1.00705   1.00914   1.02446   1.02674
 Alpha virt. eigenvalues --    1.02966   1.03220   1.03414   1.04346   1.04676
 Alpha virt. eigenvalues --    1.04786   1.05186   1.06050   1.06202   1.07167
 Alpha virt. eigenvalues --    1.08120   1.08811   1.09313   1.09380   1.10218
 Alpha virt. eigenvalues --    1.11425   1.11796   1.12557   1.12957   1.14174
 Alpha virt. eigenvalues --    1.14940   1.15061   1.15983   1.16776   1.17028
 Alpha virt. eigenvalues --    1.17552   1.17806   1.17919   1.19692   1.19741
 Alpha virt. eigenvalues --    1.21169   1.21187   1.21779   1.23159   1.23591
 Alpha virt. eigenvalues --    1.24397   1.24464   1.25319   1.26595   1.27465
 Alpha virt. eigenvalues --    1.27816   1.29655   1.29955   1.30614   1.30669
 Alpha virt. eigenvalues --    1.31731   1.32208   1.32446   1.33083   1.33592
 Alpha virt. eigenvalues --    1.34791   1.36566   1.37264   1.37542   1.38217
 Alpha virt. eigenvalues --    1.38373   1.39634   1.39655   1.40851   1.41004
 Alpha virt. eigenvalues --    1.41759   1.42371   1.43354   1.44352   1.44875
 Alpha virt. eigenvalues --    1.45468   1.46375   1.47017   1.47346   1.48004
 Alpha virt. eigenvalues --    1.48054   1.48626   1.49086   1.50460   1.50923
 Alpha virt. eigenvalues --    1.51441   1.51797   1.52368   1.53689   1.53715
 Alpha virt. eigenvalues --    1.54554   1.55299   1.55427   1.56911   1.57000
 Alpha virt. eigenvalues --    1.58362   1.59337   1.59675   1.60099   1.61361
 Alpha virt. eigenvalues --    1.61994   1.62136   1.62465   1.63252   1.63642
 Alpha virt. eigenvalues --    1.64004   1.66994   1.67301   1.67900   1.69257
 Alpha virt. eigenvalues --    1.69996   1.70297   1.71496   1.71798   1.72427
 Alpha virt. eigenvalues --    1.73112   1.73938   1.74282   1.74395   1.76410
 Alpha virt. eigenvalues --    1.77019   1.77580   1.78641   1.79803   1.80095
 Alpha virt. eigenvalues --    1.81076   1.82041   1.82676   1.84143   1.85459
 Alpha virt. eigenvalues --    1.85851   1.86049   1.87302   1.89494   1.89689
 Alpha virt. eigenvalues --    1.90915   1.91284   1.93456   1.93876   1.94911
 Alpha virt. eigenvalues --    1.96133   1.96840   1.97053   1.97204   1.98136
 Alpha virt. eigenvalues --    2.00461   2.00670   2.01168   2.03520   2.03960
 Alpha virt. eigenvalues --    2.04952   2.05448   2.05621   2.06798   2.07049
 Alpha virt. eigenvalues --    2.08329   2.08687   2.11145   2.11748   2.12888
 Alpha virt. eigenvalues --    2.13040   2.15715   2.16391   2.16464   2.16969
 Alpha virt. eigenvalues --    2.17222   2.18998   2.19537   2.21188   2.22199
 Alpha virt. eigenvalues --    2.24295   2.24380   2.26622   2.27586   2.27837
 Alpha virt. eigenvalues --    2.28162   2.31203   2.31265   2.32568   2.32906
 Alpha virt. eigenvalues --    2.33156   2.36998   2.37966   2.38093   2.40026
 Alpha virt. eigenvalues --    2.43787   2.45345   2.45553   2.46369   2.47830
 Alpha virt. eigenvalues --    2.48739   2.49503   2.53327   2.54350   2.55386
 Alpha virt. eigenvalues --    2.55908   2.57301   2.57933   2.59518   2.62339
 Alpha virt. eigenvalues --    2.63518   2.63711   2.66010   2.66158   2.69544
 Alpha virt. eigenvalues --    2.72652   2.75991   2.77138   2.77393   2.80171
 Alpha virt. eigenvalues --    2.82500   2.82990   2.85435   2.86294   2.88856
 Alpha virt. eigenvalues --    2.90218   2.92271   2.93854   2.95584   2.98338
 Alpha virt. eigenvalues --    3.03165   3.03211   3.03652   3.06817   3.07184
 Alpha virt. eigenvalues --    3.09234   3.09514   3.10631   3.14702   3.15146
 Alpha virt. eigenvalues --    3.16849   3.19374   3.19810   3.21858   3.22020
 Alpha virt. eigenvalues --    3.23204   3.23817   3.24865   3.27981   3.28118
 Alpha virt. eigenvalues --    3.28949   3.29631   3.30795   3.32230   3.33457
 Alpha virt. eigenvalues --    3.33563   3.34665   3.35337   3.37193   3.38091
 Alpha virt. eigenvalues --    3.38557   3.39305   3.39888   3.40240   3.40779
 Alpha virt. eigenvalues --    3.40841   3.44506   3.44843   3.45892   3.46340
 Alpha virt. eigenvalues --    3.48463   3.49285   3.49913   3.50054   3.51398
 Alpha virt. eigenvalues --    3.51627   3.52700   3.53351   3.54717   3.55319
 Alpha virt. eigenvalues --    3.57185   3.58257   3.58609   3.59182   3.61572
 Alpha virt. eigenvalues --    3.61745   3.62083   3.63869   3.65094   3.66113
 Alpha virt. eigenvalues --    3.66461   3.67843   3.68990   3.69333   3.71030
 Alpha virt. eigenvalues --    3.71372   3.71835   3.73753   3.74933   3.75014
 Alpha virt. eigenvalues --    3.75814   3.76418   3.78367   3.79798   3.81219
 Alpha virt. eigenvalues --    3.82513   3.82779   3.83298   3.84794   3.86550
 Alpha virt. eigenvalues --    3.86572   3.87796   3.88514   3.89760   3.89867
 Alpha virt. eigenvalues --    3.90672   3.91120   3.96266   3.96353   3.96703
 Alpha virt. eigenvalues --    3.97457   3.98774   3.99382   4.00059   4.00786
 Alpha virt. eigenvalues --    4.02920   4.02971   4.06245   4.07730   4.08207
 Alpha virt. eigenvalues --    4.08679   4.11797   4.11918   4.12289   4.16643
 Alpha virt. eigenvalues --    4.18260   4.18473   4.18963   4.19542   4.20771
 Alpha virt. eigenvalues --    4.21533   4.22104   4.22600   4.24793   4.25882
 Alpha virt. eigenvalues --    4.25911   4.27582   4.29104   4.31203   4.33622
 Alpha virt. eigenvalues --    4.35192   4.35917   4.37024   4.39643   4.40710
 Alpha virt. eigenvalues --    4.41936   4.42630   4.44348   4.44850   4.47019
 Alpha virt. eigenvalues --    4.47109   4.48662   4.49599   4.49965   4.50489
 Alpha virt. eigenvalues --    4.50798   4.52086   4.55045   4.55495   4.56237
 Alpha virt. eigenvalues --    4.56672   4.59175   4.61810   4.64095   4.64213
 Alpha virt. eigenvalues --    4.66470   4.66657   4.68639   4.70181   4.70696
 Alpha virt. eigenvalues --    4.71885   4.73025   4.74325   4.74639   4.77053
 Alpha virt. eigenvalues --    4.79284   4.79348   4.79552   4.82728   4.84286
 Alpha virt. eigenvalues --    4.85193   4.85252   4.87800   4.88306   4.89350
 Alpha virt. eigenvalues --    4.92200   4.94105   4.94178   5.01188   5.02176
 Alpha virt. eigenvalues --    5.03184   5.04134   5.08189   5.08295   5.10311
 Alpha virt. eigenvalues --    5.11328   5.11831   5.13218   5.13651   5.15187
 Alpha virt. eigenvalues --    5.16961   5.17533   5.18744   5.20306   5.23858
 Alpha virt. eigenvalues --    5.27061   5.27351   5.28203   5.30221   5.32724
 Alpha virt. eigenvalues --    5.36519   5.38358   5.41075   5.45180   5.48297
 Alpha virt. eigenvalues --    5.48634   5.50148   5.51047   5.55537   5.57498
 Alpha virt. eigenvalues --    5.58052   5.58293   5.60979   5.62588   5.66505
 Alpha virt. eigenvalues --    5.67177   5.69171   5.70123   5.74776   5.75705
 Alpha virt. eigenvalues --    5.76167   5.79522   5.81111   5.83851   5.85990
 Alpha virt. eigenvalues --    5.87809   5.91281   5.95028   6.03025   6.06442
 Alpha virt. eigenvalues --    6.11207   6.13711   6.20149   6.22611   6.26331
 Alpha virt. eigenvalues --    6.27475   6.27928   6.29282   6.33869   6.36878
 Alpha virt. eigenvalues --    6.40465   6.40856   6.42503   6.45434   6.46390
 Alpha virt. eigenvalues --    6.46849   6.52959   6.55270   6.57810   6.60939
 Alpha virt. eigenvalues --    6.64578   6.69875   6.74548   6.77702   6.81365
 Alpha virt. eigenvalues --    6.81993   6.85958   6.87756   6.88806   6.88967
 Alpha virt. eigenvalues --    6.94930   6.96946   7.12014   7.18183   7.20106
 Alpha virt. eigenvalues --    7.21000   7.35068   7.41500   7.57787   7.71687
 Alpha virt. eigenvalues --    7.81267   7.89292   8.09998  15.73516  16.04133
 Alpha virt. eigenvalues --   16.82214  17.83212  18.30578  18.84956  19.18113
 Alpha virt. eigenvalues --   19.76005  20.59586  21.61091  22.04564
          Condensed to atoms (all electrons):
               1          2          3          4          5          6
     1  C    6.095769   0.643339  -0.477109  -0.113325  -0.013586  -0.042896
     2  N    0.643339  11.130446  -5.150918  -0.438259  -0.198867  -0.878308
     3  N   -0.477109  -5.150918  14.481392  -0.295097   0.034481   0.549824
     4  C   -0.113325  -0.438259  -0.295097   8.670403  -0.276355  -1.275229
     5  C   -0.013586  -0.198867   0.034481  -0.276355   6.289624  -0.091690
     6  C   -0.042896  -0.878308   0.549824  -1.275229  -0.091690   9.458046
     7  C   -0.108833   1.185933  -1.168806   0.577634   0.015654  -2.943416
     8  C   -0.002620  -0.170534  -0.045967   0.048862  -0.021367  -0.091750
     9  C    0.025824   0.246006   0.124751  -1.355560  -0.097580  -1.103068
    10  O    0.002220  -0.028390   0.002781   0.102691   0.018251  -0.370635
    11  O    0.000692  -0.001137  -0.010508   0.019469   0.001025  -0.106776
    12  H    0.419656   0.049270  -0.033700  -0.023388  -0.000380   0.008137
    13  H    0.278168  -0.110807  -0.011134   0.027083   0.000452  -0.008807
    14  H    0.418187   0.046702  -0.032321  -0.022781  -0.000324   0.008646
    15  H    0.000476   0.037893  -0.038978  -0.106934   0.439965  -0.058949
    16  H   -0.002125  -0.087445   0.050298   0.027998   0.436096  -0.003954
    17  H    0.000420   0.037530  -0.038707  -0.107153   0.439853  -0.059299
    18  H   -0.004492  -0.001881  -0.020425   0.020760  -0.000341  -0.105589
    19  H   -0.004855  -0.001974  -0.020337   0.020622  -0.000377  -0.105107
    20  H   -0.037251  -0.031391  -0.001002   0.000235  -0.000686   0.055246
    21  H   -0.000220   0.003542   0.000202   0.003012  -0.015109  -0.022146
               7          8          9         10         11         12
     1  C   -0.108833  -0.002620   0.025824   0.002220   0.000692   0.419656
     2  N    1.185933  -0.170534   0.246006  -0.028390  -0.001137   0.049270
     3  N   -1.168806  -0.045967   0.124751   0.002781  -0.010508  -0.033700
     4  C    0.577634   0.048862  -1.355560   0.102691   0.019469  -0.023388
     5  C    0.015654  -0.021367  -0.097580   0.018251   0.001025  -0.000380
     6  C   -2.943416  -0.091750  -1.103068  -0.370635  -0.106776   0.008137
     7  C    9.885982  -0.177943   0.208829   0.132676   0.074225  -0.040556
     8  C   -0.177943   6.197136  -0.015984  -0.003148  -0.001670  -0.015769
     9  C    0.208829  -0.015984   8.128284  -0.097736  -0.002259   0.002795
    10  O    0.132676  -0.003148  -0.097736   9.466347  -0.166916  -0.000372
    11  O    0.074225  -0.001670  -0.002259  -0.166916   8.570808   0.000045
    12  H   -0.040556  -0.015769   0.002795  -0.000372   0.000045   0.359635
    13  H    0.014778   0.009745  -0.003246   0.000323   0.000055  -0.012840
    14  H   -0.041521  -0.015625   0.002718  -0.000334   0.000051   0.028338
    15  H    0.028602  -0.001205  -0.015757   0.003123   0.000821  -0.000180
    16  H   -0.021170  -0.000600  -0.002136  -0.000276  -0.006541  -0.000097
    17  H    0.029258  -0.001085  -0.016051   0.003134   0.000926   0.000263
    18  H   -0.028534   0.429514   0.012720   0.008035   0.001395  -0.002954
    19  H   -0.031667   0.432018   0.011923   0.008002   0.001484  -0.002921
    20  H   -0.087850   0.473216  -0.013674  -0.001283  -0.000426  -0.009982
    21  H   -0.016761  -0.000203   0.064822  -0.124972   0.190732   0.000045
              13         14         15         16         17         18
     1  C    0.278168   0.418187   0.000476  -0.002125   0.000420  -0.004492
     2  N   -0.110807   0.046702   0.037893  -0.087445   0.037530  -0.001881
     3  N   -0.011134  -0.032321  -0.038978   0.050298  -0.038707  -0.020425
     4  C    0.027083  -0.022781  -0.106934   0.027998  -0.107153   0.020760
     5  C    0.000452  -0.000324   0.439965   0.436096   0.439853  -0.000341
     6  C   -0.008807   0.008646  -0.058949  -0.003954  -0.059299  -0.105589
     7  C    0.014778  -0.041521   0.028602  -0.021170   0.029258  -0.028534
     8  C    0.009745  -0.015625  -0.001205  -0.000600  -0.001085   0.429514
     9  C   -0.003246   0.002718  -0.015757  -0.002136  -0.016051   0.012720
    10  O    0.000323  -0.000334   0.003123  -0.000276   0.003134   0.008035
    11  O    0.000055   0.000051   0.000821  -0.006541   0.000926   0.001395
    12  H   -0.012840   0.028338  -0.000180  -0.000097   0.000263  -0.002954
    13  H    0.374345  -0.011800  -0.000129   0.000513  -0.000102   0.000494
    14  H   -0.011800   0.357686   0.000278  -0.000089  -0.000189  -0.002647
    15  H   -0.000129   0.000278   0.487294  -0.054056   0.014737   0.000512
    16  H    0.000513  -0.000089  -0.054056   0.522987  -0.053774   0.000180
    17  H   -0.000102  -0.000189   0.014737  -0.053774   0.487229  -0.000479
    18  H    0.000494  -0.002647   0.000512   0.000180  -0.000479   0.440565
    19  H    0.000530  -0.003066  -0.000489   0.000182   0.000511   0.013111
    20  H    0.006679  -0.009328  -0.000031  -0.000198  -0.000031  -0.009624
    21  H   -0.000077   0.000045  -0.001820  -0.000258  -0.001847   0.000226
              19         20         21
     1  C   -0.004855  -0.037251  -0.000220
     2  N   -0.001974  -0.031391   0.003542
     3  N   -0.020337  -0.001002   0.000202
     4  C    0.020622   0.000235   0.003012
     5  C   -0.000377  -0.000686  -0.015109
     6  C   -0.105107   0.055246  -0.022146
     7  C   -0.031667  -0.087850  -0.016761
     8  C    0.432018   0.473216  -0.000203
     9  C    0.011923  -0.013674   0.064822
    10  O    0.008002  -0.001283  -0.124972
    11  O    0.001484  -0.000426   0.190732
    12  H   -0.002921  -0.009982   0.000045
    13  H    0.000530   0.006679  -0.000077
    14  H   -0.003066  -0.009328   0.000045
    15  H   -0.000489  -0.000031  -0.001820
    16  H    0.000182  -0.000198  -0.000258
    17  H    0.000511  -0.000031  -0.001847
    18  H    0.013111  -0.009624   0.000226
    19  H    0.442116  -0.010718   0.000233
    20  H   -0.010718   0.519995  -0.000169
    21  H    0.000233  -0.000169   0.632687
 Mulliken charges:
               1
     1  C   -1.077441
     2  N    0.719249
     3  N   -0.898720
     4  C    0.495309
     5  C   -0.958738
     6  C    3.187719
     7  C   -1.486513
     8  C   -1.025024
     9  C   -0.105623
    10  O   -0.953520
    11  O   -0.565494
    12  H    0.274954
    13  H    0.445775
    14  H    0.277375
    15  H    0.264828
    16  H    0.194465
    17  H    0.264855
    18  H    0.249455
    19  H    0.250779
    20  H    0.158275
    21  H    0.288034
 Sum of Mulliken charges =   0.00000
 Mulliken charges with hydrogens summed into heavy atoms:
               1
     1  C   -0.079336
     2  N    0.719249
     3  N   -0.898720
     4  C    0.495309
     5  C   -0.234590
     6  C    3.187719
     7  C   -1.486513
     8  C   -0.366515
     9  C   -0.105623
    10  O   -0.953520
    11  O   -0.277460
 Electronic spatial extent (au):  <R**2>=           1694.9784
 Charge=              0.0000 electrons
 Dipole moment (field-independent basis, Debye):
    X=              2.4713    Y=             -0.2094    Z=              0.0011  Tot=              2.4802
 Quadrupole moment (field-independent basis, Debye-Ang):
   XX=            -51.9393   YY=            -71.4453   ZZ=            -64.4380
   XY=             -5.8550   XZ=             -0.0168   YZ=             -0.0180
 Traceless Quadrupole moment (field-independent basis, Debye-Ang):
   XX=             10.6682   YY=             -8.8378   ZZ=             -1.8305
   XY=             -5.8550   XZ=             -0.0168   YZ=             -0.0180
 Octapole moment (field-independent basis, Debye-Ang**2):
  XXX=             -8.6059  YYY=              2.9070  ZZZ=             -0.0029  XYY=              3.6033
  XXY=             -8.3191  XXZ=             -0.0402  XZZ=             -3.0450  YZZ=             -3.9984
  YYZ=              0.0128  XYZ=              0.0035
 Hexadecapole moment (field-independent basis, Debye-Ang**3):
 XXXX=          -1007.5782 YYYY=           -893.6827 ZZZZ=            -85.5564 XXXY=             55.5180
 XXXZ=             -0.0667 YYYX=            -36.6152 YYYZ=             -0.1088 ZZZX=              0.0280
 ZZZY=              0.0534 XXYY=           -374.3373 XXZZ=           -220.4158 YYZZ=           -156.6319
 XXYZ=             -0.1076 YYXZ=             -0.1225 ZZXY=             -0.3399
 N-N= 6.433493973039D+02 E-N=-2.530455358877D+03  KE= 5.308696663419D+02
 ******************************Gaussian NBO Version 3.1******************************
             N A T U R A L   A T O M I C   O R B I T A L   A N D
          N A T U R A L   B O N D   O R B I T A L   A N A L Y S I S
 ******************************Gaussian NBO Version 3.1******************************
       /RESON  / : Allow strongly delocalized NBO set

 Analyzing the SCF density

 Job title: 7                                                               

 Storage needed:   1628152 in NPA,   2169479 in NBO (********** available)
 GSVD:  LWork=       25576 too small for GESVD, short by     1002110 words or     1002110 for optimal perf.


 NATURAL POPULATIONS:  Natural atomic orbital occupancies 
                                                          
   NAO  Atom  No  lang   Type(AO)    Occupancy      Energy
 ----------------------------------------------------------
     1    C    1  S      Cor( 1S)     1.99943     -10.47243
     2    C    1  S      Val( 2S)     1.10042      -0.33744
     3    C    1  S      Ryd( 4S)     0.00048       1.20174
     4    C    1  S      Ryd( 5S)     0.00003       4.23633
     5    C    1  S      Ryd( 3S)     0.00002       1.12338
     6    C    1  px     Val( 2p)     0.84513      -0.09621
     7    C    1  px     Ryd( 4p)     0.00130       1.22115
     8    C    1  px     Ryd( 5p)     0.00012       1.51995
     9    C    1  px     Ryd( 3p)     0.00002       1.18996
    10    C    1  py     Val( 2p)     1.22725      -0.16082
    11    C    1  py     Ryd( 3p)     0.00227       1.22198
    12    C    1  py     Ryd( 5p)     0.00007       1.94537
    13    C    1  py     Ryd( 4p)     0.00001       1.30655
    14    C    1  pz     Val( 2p)     1.20427      -0.15644
    15    C    1  pz     Ryd( 4p)     0.00054       1.11910
    16    C    1  pz     Ryd( 5p)     0.00010       1.86483
    17    C    1  pz     Ryd( 3p)     0.00002       0.91639
    18    C    1  dxy    Ryd( 4d)     0.00067       1.81141
    19    C    1  dxy    Ryd( 5d)     0.00008       3.67516
    20    C    1  dxy    Ryd( 3d)     0.00001       1.31392
    21    C    1  dxz    Ryd( 4d)     0.00096       1.54511
    22    C    1  dxz    Ryd( 5d)     0.00004       3.29720
    23    C    1  dxz    Ryd( 3d)     0.00003       1.15897
    24    C    1  dyz    Ryd( 4d)     0.00215       1.62019
    25    C    1  dyz    Ryd( 5d)     0.00003       3.51953
    26    C    1  dyz    Ryd( 3d)     0.00002       1.17306
    27    C    1  dx2y2  Ryd( 4d)     0.00148       2.17976
    28    C    1  dx2y2  Ryd( 5d)     0.00006       3.75207
    29    C    1  dx2y2  Ryd( 3d)     0.00003       1.41702
    30    C    1  dz2    Ryd( 4d)     0.00162       1.84355
    31    C    1  dz2    Ryd( 5d)     0.00004       3.72291
    32    C    1  dz2    Ryd( 3d)     0.00002       1.54808
    33    C    1  f(0)   Ryd( 5f)     0.00001       3.88409
    34    C    1  f(0)   Ryd( 4f)     0.00001       2.18569
    35    C    1  f(C1)  Ryd( 5f)     0.00003       4.27116
    36    C    1  f(C1)  Ryd( 4f)     0.00005       3.36807
    37    C    1  f(S1)  Ryd( 5f)     0.00014       4.07752
    38    C    1  f(S1)  Ryd( 4f)     0.00002       3.25097
    39    C    1  f(C2)  Ryd( 5f)     0.00002       3.90599
    40    C    1  f(C2)  Ryd( 4f)     0.00004       2.26469
    41    C    1  f(S2)  Ryd( 5f)     0.00003       3.96808
    42    C    1  f(S2)  Ryd( 4f)     0.00002       2.51626
    43    C    1  f(C3)  Ryd( 5f)     0.00007       4.29084
    44    C    1  f(C3)  Ryd( 4f)     0.00004       2.65959
    45    C    1  f(S3)  Ryd( 5f)     0.00004       4.28331
    46    C    1  f(S3)  Ryd( 4f)     0.00005       2.54982
 
    47    N    2  S      Cor( 1S)     1.99917     -14.64081
    48    N    2  S      Val( 2S)     1.11676      -0.51355
    49    N    2  S      Ryd( 3S)     0.00344       2.04748
    50    N    2  S      Ryd( 4S)     0.00136       2.09820
    51    N    2  S      Ryd( 5S)     0.00005       8.34255
    52    N    2  px     Val( 2p)     1.28593      -0.30194
    53    N    2  px     Ryd( 4p)     0.00311       2.56401
    54    N    2  px     Ryd( 5p)     0.00007       5.55926
    55    N    2  px     Ryd( 3p)     0.00001       1.69017
    56    N    2  py     Val( 2p)     1.21793      -0.27656
    57    N    2  py     Ryd( 4p)     0.00528       1.89476
    58    N    2  py     Ryd( 5p)     0.00023       4.46916
    59    N    2  py     Ryd( 3p)     0.00007       1.33366
    60    N    2  pz     Val( 2p)     1.48330      -0.31727
    61    N    2  pz     Ryd( 4p)     0.00416       0.93726
    62    N    2  pz     Ryd( 5p)     0.00008       3.38130
    63    N    2  pz     Ryd( 3p)     0.00005       0.83343
    64    N    2  dxy    Ryd( 5d)     0.00218       4.84969
    65    N    2  dxy    Ryd( 4d)     0.00044       4.77470
    66    N    2  dxy    Ryd( 3d)     0.00006       4.41299
    67    N    2  dxz    Ryd( 3d)     0.00049       2.05420
    68    N    2  dxz    Ryd( 5d)     0.00023       3.43579
    69    N    2  dxz    Ryd( 4d)     0.00008       3.34818
    70    N    2  dyz    Ryd( 3d)     0.00166       2.09703
    71    N    2  dyz    Ryd( 4d)     0.00014       3.32291
    72    N    2  dyz    Ryd( 5d)     0.00004       3.38097
    73    N    2  dx2y2  Ryd( 3d)     0.00095       3.86328
    74    N    2  dx2y2  Ryd( 4d)     0.00042       4.62189
    75    N    2  dx2y2  Ryd( 5d)     0.00009       5.15738
    76    N    2  dz2    Ryd( 3d)     0.00132       2.68022
    77    N    2  dz2    Ryd( 4d)     0.00031       3.67031
    78    N    2  dz2    Ryd( 5d)     0.00007       5.08438
    79    N    2  f(0)   Ryd( 4f)     0.00131       1.77515
    80    N    2  f(0)   Ryd( 5f)     0.00015       4.92124
    81    N    2  f(C1)  Ryd( 4f)     0.00137       2.42244
    82    N    2  f(C1)  Ryd( 5f)     0.00010       4.98303
    83    N    2  f(S1)  Ryd( 4f)     0.00103       2.19120
    84    N    2  f(S1)  Ryd( 5f)     0.00012       4.95022
    85    N    2  f(C2)  Ryd( 4f)     0.00097       1.76616
    86    N    2  f(C2)  Ryd( 5f)     0.00008       4.97207
    87    N    2  f(S2)  Ryd( 4f)     0.00009       1.70711
    88    N    2  f(S2)  Ryd( 5f)     0.00004       5.03100
    89    N    2  f(C3)  Ryd( 4f)     0.00069       3.04736
    90    N    2  f(C3)  Ryd( 5f)     0.00016       5.51342
    91    N    2  f(S3)  Ryd( 4f)     0.00125       2.46605
    92    N    2  f(S3)  Ryd( 5f)     0.00015       5.57853
 
    93    N    3  S      Cor( 1S)     1.99931     -14.53014
    94    N    3  S      Val( 2S)     1.32501      -0.51831
    95    N    3  S      Ryd( 4S)     0.00339       3.28665
    96    N    3  S      Ryd( 3S)     0.00004       2.66486
    97    N    3  S      Ryd( 5S)     0.00004       9.10077
    98    N    3  px     Val( 2p)     1.27115      -0.19195
    99    N    3  px     Ryd( 3p)     0.00509       2.35961
   100    N    3  px     Ryd( 5p)     0.00006       2.77561
   101    N    3  px     Ryd( 4p)     0.00006       2.48127
   102    N    3  py     Val( 2p)     1.39288      -0.20400
   103    N    3  py     Ryd( 3p)     0.00381       1.77559
   104    N    3  py     Ryd( 5p)     0.00009       3.40929
   105    N    3  py     Ryd( 4p)     0.00004       2.18704
   106    N    3  pz     Val( 2p)     1.25637      -0.20614
   107    N    3  pz     Ryd( 3p)     0.00256       1.26665
   108    N    3  pz     Ryd( 5p)     0.00003       2.44087
   109    N    3  pz     Ryd( 4p)     0.00006       1.33702
   110    N    3  dxy    Ryd( 3d)     0.00395       2.55292
   111    N    3  dxy    Ryd( 5d)     0.00027       4.87731
   112    N    3  dxy    Ryd( 4d)     0.00004       2.82400
   113    N    3  dxz    Ryd( 3d)     0.00094       1.68708
   114    N    3  dxz    Ryd( 5d)     0.00013       4.75311
   115    N    3  dxz    Ryd( 4d)     0.00005       1.70917
   116    N    3  dyz    Ryd( 4d)     0.00360       1.61606
   117    N    3  dyz    Ryd( 5d)     0.00008       4.49128
   118    N    3  dyz    Ryd( 3d)     0.00009       1.53264
   119    N    3  dx2y2  Ryd( 3d)     0.00424       2.78793
   120    N    3  dx2y2  Ryd( 5d)     0.00021       5.26012
   121    N    3  dx2y2  Ryd( 4d)     0.00013       3.13778
   122    N    3  dz2    Ryd( 3d)     0.00564       1.99173
   123    N    3  dz2    Ryd( 5d)     0.00006       5.10641
   124    N    3  dz2    Ryd( 4d)     0.00006       2.74645
   125    N    3  f(0)   Ryd( 5f)     0.00014       4.92485
   126    N    3  f(0)   Ryd( 4f)     0.00008       2.39006
   127    N    3  f(C1)  Ryd( 5f)     0.00010       5.11834
   128    N    3  f(C1)  Ryd( 4f)     0.00006       3.66744
   129    N    3  f(S1)  Ryd( 5f)     0.00007       5.03779
   130    N    3  f(S1)  Ryd( 4f)     0.00004       3.80275
   131    N    3  f(C2)  Ryd( 5f)     0.00003       4.96387
   132    N    3  f(C2)  Ryd( 4f)     0.00002       2.60686
   133    N    3  f(S2)  Ryd( 5f)     0.00003       4.96301
   134    N    3  f(S2)  Ryd( 4f)     0.00003       2.62382
   135    N    3  f(C3)  Ryd( 5f)     0.00015       5.58721
   136    N    3  f(C3)  Ryd( 4f)     0.00013       4.83450
   137    N    3  f(S3)  Ryd( 5f)     0.00003       5.52972
   138    N    3  f(S3)  Ryd( 4f)     0.00015       3.93906
 
   139    C    4  S      Cor( 1S)     1.99912     -10.39452
   140    C    4  S      Val( 2S)     0.84115      -0.09460
   141    C    4  S      Ryd( 4S)     0.00267       1.75794
   142    C    4  S      Ryd( 5S)     0.00018       2.24998
   143    C    4  S      Ryd( 3S)     0.00002       1.45137
   144    C    4  px     Val( 2p)     0.92780      -0.01875
   145    C    4  px     Ryd( 4p)     0.00603       1.84953
   146    C    4  px     Ryd( 5p)     0.00008       2.50666
   147    C    4  px     Ryd( 3p)     0.00003       1.16910
   148    C    4  py     Val( 2p)     1.03483      -0.04002
   149    C    4  py     Ryd( 5p)     0.00478       2.21097
   150    C    4  py     Ryd( 4p)     0.00010       2.14892
   151    C    4  py     Ryd( 3p)     0.00002       0.80254
   152    C    4  pz     Val( 2p)     0.98006      -0.10356
   153    C    4  pz     Ryd( 4p)     0.00234       1.09687
   154    C    4  pz     Ryd( 5p)     0.00014       1.63425
   155    C    4  pz     Ryd( 3p)     0.00005       0.53356
   156    C    4  dxy    Ryd( 3d)     0.00283       2.01596
   157    C    4  dxy    Ryd( 4d)     0.00034       3.80546
   158    C    4  dxy    Ryd( 5d)     0.00007       4.03217
   159    C    4  dxz    Ryd( 3d)     0.00167       1.37111
   160    C    4  dxz    Ryd( 5d)     0.00011       3.08291
   161    C    4  dxz    Ryd( 4d)     0.00003       2.57094
   162    C    4  dyz    Ryd( 3d)     0.00091       1.34422
   163    C    4  dyz    Ryd( 5d)     0.00017       2.97859
   164    C    4  dyz    Ryd( 4d)     0.00010       2.54095
   165    C    4  dx2y2  Ryd( 3d)     0.00041       3.02203
   166    C    4  dx2y2  Ryd( 5d)     0.00080       4.28605
   167    C    4  dx2y2  Ryd( 4d)     0.00004       4.03897
   168    C    4  dz2    Ryd( 3d)     0.00087       1.86253
   169    C    4  dz2    Ryd( 4d)     0.00016       3.86483
   170    C    4  dz2    Ryd( 5d)     0.00006       4.38034
   171    C    4  f(0)   Ryd( 4f)     0.00030       1.50277
   172    C    4  f(0)   Ryd( 5f)     0.00014       3.67277
   173    C    4  f(C1)  Ryd( 4f)     0.00096       1.74011
   174    C    4  f(C1)  Ryd( 5f)     0.00010       3.82707
   175    C    4  f(S1)  Ryd( 4f)     0.00065       1.86872
   176    C    4  f(S1)  Ryd( 5f)     0.00017       3.85751
   177    C    4  f(C2)  Ryd( 4f)     0.00073       1.32771
   178    C    4  f(C2)  Ryd( 5f)     0.00001       3.77085
   179    C    4  f(S2)  Ryd( 4f)     0.00076       1.40531
   180    C    4  f(S2)  Ryd( 5f)     0.00001       3.75964
   181    C    4  f(C3)  Ryd( 4f)     0.00202       2.63889
   182    C    4  f(C3)  Ryd( 5f)     0.00009       4.66676
   183    C    4  f(S3)  Ryd( 4f)     0.00147       2.66900
   184    C    4  f(S3)  Ryd( 5f)     0.00009       4.78514
 
   185    C    5  S      Cor( 1S)     1.99947     -10.39170
   186    C    5  S      Val( 2S)     1.10804      -0.29456
   187    C    5  S      Ryd( 4S)     0.00074       1.30264
   188    C    5  S      Ryd( 5S)     0.00006       6.64330
   189    C    5  S      Ryd( 3S)     0.00002       1.28318
   190    C    5  px     Val( 2p)     1.15807      -0.09998
   191    C    5  px     Ryd( 3p)     0.00157       1.30499
   192    C    5  px     Ryd( 5p)     0.00005       1.92521
   193    C    5  px     Ryd( 4p)     0.00002       1.40993
   194    C    5  py     Val( 2p)     1.12207      -0.09602
   195    C    5  py     Ryd( 3p)     0.00085       1.31685
   196    C    5  py     Ryd( 5p)     0.00008       1.82480
   197    C    5  py     Ryd( 4p)     0.00002       1.32966
   198    C    5  pz     Val( 2p)     1.21537      -0.11092
   199    C    5  pz     Ryd( 4p)     0.00034       1.24227
   200    C    5  pz     Ryd( 5p)     0.00003       1.68701
   201    C    5  pz     Ryd( 3p)     0.00002       1.08473
   202    C    5  dxy    Ryd( 4d)     0.00208       1.98797
   203    C    5  dxy    Ryd( 5d)     0.00008       3.51238
   204    C    5  dxy    Ryd( 3d)     0.00003       1.37800
   205    C    5  dxz    Ryd( 4d)     0.00213       1.69771
   206    C    5  dxz    Ryd( 5d)     0.00001       3.51288
   207    C    5  dxz    Ryd( 3d)     0.00002       1.42619
   208    C    5  dyz    Ryd( 4d)     0.00027       1.57737
   209    C    5  dyz    Ryd( 5d)     0.00000       3.17504
   210    C    5  dyz    Ryd( 3d)     0.00002       1.20260
   211    C    5  dx2y2  Ryd( 4d)     0.00040       1.86172
   212    C    5  dx2y2  Ryd( 5d)     0.00003       3.35657
   213    C    5  dx2y2  Ryd( 3d)     0.00003       1.47519
   214    C    5  dz2    Ryd( 4d)     0.00172       1.90187
   215    C    5  dz2    Ryd( 5d)     0.00006       3.54703
   216    C    5  dz2    Ryd( 3d)     0.00001       1.66965
   217    C    5  f(0)   Ryd( 5f)     0.00000       3.88825
   218    C    5  f(0)   Ryd( 4f)     0.00002       2.09852
   219    C    5  f(C1)  Ryd( 5f)     0.00017       4.22158
   220    C    5  f(C1)  Ryd( 4f)     0.00003       3.49930
   221    C    5  f(S1)  Ryd( 5f)     0.00004       3.90329
   222    C    5  f(S1)  Ryd( 4f)     0.00003       3.89059
   223    C    5  f(C2)  Ryd( 5f)     0.00002       3.85472
   224    C    5  f(C2)  Ryd( 4f)     0.00003       2.63922
   225    C    5  f(S2)  Ryd( 5f)     0.00001       3.87979
   226    C    5  f(S2)  Ryd( 4f)     0.00002       2.13801
   227    C    5  f(C3)  Ryd( 5f)     0.00009       4.02899
   228    C    5  f(C3)  Ryd( 4f)     0.00003       3.31223
   229    C    5  f(S3)  Ryd( 5f)     0.00002       4.04274
   230    C    5  f(S3)  Ryd( 4f)     0.00005       2.58699
 
   231    C    6  S      Cor( 1S)     1.99867     -10.33756
   232    C    6  S      Val( 2S)     0.88317      -0.07766
   233    C    6  S      Ryd( 3S)     0.00073       2.17712
   234    C    6  S      Ryd( 4S)     0.00005       2.40945
   235    C    6  S      Ryd( 5S)     0.00002       3.49355
   236    C    6  px     Val( 2p)     1.12156      -0.09859
   237    C    6  px     Ryd( 5p)     0.00375       2.74379
   238    C    6  px     Ryd( 4p)     0.00008       2.67637
   239    C    6  px     Ryd( 3p)     0.00006       0.82169
   240    C    6  py     Val( 2p)     1.11629      -0.08728
   241    C    6  py     Ryd( 4p)     0.00535       2.27736
   242    C    6  py     Ryd( 5p)     0.00011       2.58098
   243    C    6  py     Ryd( 3p)     0.00004       0.82886
   244    C    6  pz     Val( 2p)     1.18224      -0.12627
   245    C    6  pz     Ryd( 4p)     0.00140       1.13120
   246    C    6  pz     Ryd( 5p)     0.00022       2.03403
   247    C    6  pz     Ryd( 3p)     0.00003       0.57126
   248    C    6  dxy    Ryd( 3d)     0.00082       3.12799
   249    C    6  dxy    Ryd( 4d)     0.00033       3.54415
   250    C    6  dxy    Ryd( 5d)     0.00005       6.01251
   251    C    6  dxz    Ryd( 3d)     0.00015       1.64657
   252    C    6  dxz    Ryd( 5d)     0.00023       2.83586
   253    C    6  dxz    Ryd( 4d)     0.00004       2.73305
   254    C    6  dyz    Ryd( 3d)     0.00053       1.63830
   255    C    6  dyz    Ryd( 4d)     0.00005       2.80824
   256    C    6  dyz    Ryd( 5d)     0.00003       2.94832
   257    C    6  dx2y2  Ryd( 3d)     0.00117       3.30696
   258    C    6  dx2y2  Ryd( 4d)     0.00048       3.60960
   259    C    6  dx2y2  Ryd( 5d)     0.00005       5.99026
   260    C    6  dz2    Ryd( 3d)     0.00070       1.67067
   261    C    6  dz2    Ryd( 4d)     0.00023       3.54196
   262    C    6  dz2    Ryd( 5d)     0.00005       4.75227
   263    C    6  f(0)   Ryd( 4f)     0.00060       1.68899
   264    C    6  f(0)   Ryd( 5f)     0.00031       3.45393
   265    C    6  f(C1)  Ryd( 4f)     0.00108       2.16584
   266    C    6  f(C1)  Ryd( 5f)     0.00030       3.75654
   267    C    6  f(S1)  Ryd( 4f)     0.00066       2.00607
   268    C    6  f(S1)  Ryd( 5f)     0.00026       3.72225
   269    C    6  f(C2)  Ryd( 4f)     0.00093       1.62563
   270    C    6  f(C2)  Ryd( 5f)     0.00008       3.51526
   271    C    6  f(S2)  Ryd( 4f)     0.00061       1.67421
   272    C    6  f(S2)  Ryd( 5f)     0.00004       3.46105
   273    C    6  f(C3)  Ryd( 4f)     0.00144       2.79965
   274    C    6  f(C3)  Ryd( 5f)     0.00023       4.52775
   275    C    6  f(S3)  Ryd( 4f)     0.00125       3.34096
   276    C    6  f(S3)  Ryd( 5f)     0.00014       4.53132
 
   277    C    7  S      Cor( 1S)     1.99895     -10.42033
   278    C    7  S      Val( 2S)     0.83200      -0.09834
   279    C    7  S      Ryd( 4S)     0.00124       1.83802
   280    C    7  S      Ryd( 5S)     0.00015       2.63392
   281    C    7  S      Ryd( 3S)     0.00001       1.64513
   282    C    7  px     Val( 2p)     0.95203      -0.04234
   283    C    7  px     Ryd( 4p)     0.00326       1.82308
   284    C    7  px     Ryd( 5p)     0.00013       2.45858
   285    C    7  px     Ryd( 3p)     0.00003       0.88751
   286    C    7  py     Val( 2p)     0.99302      -0.04844
   287    C    7  py     Ryd( 4p)     0.00382       2.30130
   288    C    7  py     Ryd( 5p)     0.00008       2.41499
   289    C    7  py     Ryd( 3p)     0.00002       1.18324
   290    C    7  pz     Val( 2p)     0.97192      -0.12131
   291    C    7  pz     Ryd( 4p)     0.00236       1.06720
   292    C    7  pz     Ryd( 5p)     0.00020       1.57779
   293    C    7  pz     Ryd( 3p)     0.00006       0.60891
   294    C    7  dxy    Ryd( 3d)     0.00070       3.25038
   295    C    7  dxy    Ryd( 4d)     0.00072       3.36558
   296    C    7  dxy    Ryd( 5d)     0.00010       5.08775
   297    C    7  dxz    Ryd( 3d)     0.00083       1.88973
   298    C    7  dxz    Ryd( 4d)     0.00008       2.28210
   299    C    7  dxz    Ryd( 5d)     0.00006       2.90857
   300    C    7  dyz    Ryd( 3d)     0.00057       1.99729
   301    C    7  dyz    Ryd( 4d)     0.00020       2.46668
   302    C    7  dyz    Ryd( 5d)     0.00004       3.00254
   303    C    7  dx2y2  Ryd( 3d)     0.00064       3.19828
   304    C    7  dx2y2  Ryd( 4d)     0.00043       3.31743
   305    C    7  dx2y2  Ryd( 5d)     0.00004       4.52393
   306    C    7  dz2    Ryd( 3d)     0.00064       2.50975
   307    C    7  dz2    Ryd( 4d)     0.00049       2.77587
   308    C    7  dz2    Ryd( 5d)     0.00005       5.41629
   309    C    7  f(0)   Ryd( 4f)     0.00021       1.49979
   310    C    7  f(0)   Ryd( 5f)     0.00020       3.69374
   311    C    7  f(C1)  Ryd( 4f)     0.00033       1.86902
   312    C    7  f(C1)  Ryd( 5f)     0.00016       3.83306
   313    C    7  f(S1)  Ryd( 4f)     0.00070       2.01309
   314    C    7  f(S1)  Ryd( 5f)     0.00019       3.95960
   315    C    7  f(C2)  Ryd( 4f)     0.00056       1.32892
   316    C    7  f(C2)  Ryd( 5f)     0.00001       3.86071
   317    C    7  f(S2)  Ryd( 4f)     0.00074       1.35810
   318    C    7  f(S2)  Ryd( 5f)     0.00001       3.74857
   319    C    7  f(C3)  Ryd( 4f)     0.00213       2.65600
   320    C    7  f(C3)  Ryd( 5f)     0.00009       4.65661
   321    C    7  f(S3)  Ryd( 4f)     0.00129       2.70748
   322    C    7  f(S3)  Ryd( 5f)     0.00006       4.68560
 
   323    C    8  S      Cor( 1S)     1.99947     -10.41568
   324    C    8  S      Val( 2S)     1.11051      -0.31615
   325    C    8  S      Ryd( 4S)     0.00078       1.38817
   326    C    8  S      Ryd( 5S)     0.00009       6.37650
   327    C    8  S      Ryd( 3S)     0.00002       1.21599
   328    C    8  px     Val( 2p)     1.20653      -0.12448
   329    C    8  px     Ryd( 3p)     0.00114       1.34773
   330    C    8  px     Ryd( 5p)     0.00012       1.68715
   331    C    8  px     Ryd( 4p)     0.00003       1.51140
   332    C    8  py     Val( 2p)     1.05945      -0.10912
   333    C    8  py     Ryd( 3p)     0.00075       1.28038
   334    C    8  py     Ryd( 5p)     0.00004       1.89020
   335    C    8  py     Ryd( 4p)     0.00001       1.44628
   336    C    8  pz     Val( 2p)     1.24035      -0.13613
   337    C    8  pz     Ryd( 4p)     0.00037       1.23523
   338    C    8  pz     Ryd( 5p)     0.00005       1.57944
   339    C    8  pz     Ryd( 3p)     0.00002       1.14679
   340    C    8  dxy    Ryd( 4d)     0.00036       1.82127
   341    C    8  dxy    Ryd( 5d)     0.00004       3.41148
   342    C    8  dxy    Ryd( 3d)     0.00003       1.40385
   343    C    8  dxz    Ryd( 4d)     0.00097       1.60406
   344    C    8  dxz    Ryd( 5d)     0.00002       3.38218
   345    C    8  dxz    Ryd( 3d)     0.00001       1.36273
   346    C    8  dyz    Ryd( 4d)     0.00115       1.59915
   347    C    8  dyz    Ryd( 5d)     0.00001       3.41037
   348    C    8  dyz    Ryd( 3d)     0.00002       1.26270
   349    C    8  dx2y2  Ryd( 4d)     0.00206       1.93601
   350    C    8  dx2y2  Ryd( 5d)     0.00007       3.60524
   351    C    8  dx2y2  Ryd( 3d)     0.00002       1.35393
   352    C    8  dz2    Ryd( 4d)     0.00223       1.85591
   353    C    8  dz2    Ryd( 5d)     0.00005       3.64292
   354    C    8  dz2    Ryd( 3d)     0.00003       1.64863
   355    C    8  f(0)   Ryd( 5f)     0.00000       3.91476
   356    C    8  f(0)   Ryd( 4f)     0.00001       2.06600
   357    C    8  f(C1)  Ryd( 5f)     0.00010       4.08438
   358    C    8  f(C1)  Ryd( 4f)     0.00002       3.42664
   359    C    8  f(S1)  Ryd( 5f)     0.00012       4.07646
   360    C    8  f(S1)  Ryd( 4f)     0.00004       3.92650
   361    C    8  f(C2)  Ryd( 5f)     0.00001       3.91573
   362    C    8  f(C2)  Ryd( 4f)     0.00002       2.14129
   363    C    8  f(S2)  Ryd( 5f)     0.00001       3.88079
   364    C    8  f(S2)  Ryd( 4f)     0.00003       2.67208
   365    C    8  f(C3)  Ryd( 5f)     0.00006       4.13024
   366    C    8  f(C3)  Ryd( 4f)     0.00004       2.79078
   367    C    8  f(S3)  Ryd( 5f)     0.00005       4.10319
   368    C    8  f(S3)  Ryd( 4f)     0.00003       3.04009
 
   369    C    9  S      Cor( 1S)     1.99907     -10.52242
   370    C    9  S      Val( 2S)     0.77338      -0.08626
   371    C    9  S      Ryd( 4S)     0.00409       2.04270
   372    C    9  S      Ryd( 5S)     0.00013       2.48270
   373    C    9  S      Ryd( 3S)     0.00004       1.89985
   374    C    9  px     Val( 2p)     0.85098      -0.02865
   375    C    9  px     Ryd( 5p)     0.00431       1.68011
   376    C    9  px     Ryd( 4p)     0.00022       1.53943
   377    C    9  px     Ryd( 3p)     0.00002       1.23154
   378    C    9  py     Val( 2p)     0.78710      -0.00541
   379    C    9  py     Ryd( 4p)     0.01373       1.64236
   380    C    9  py     Ryd( 5p)     0.00015       1.67004
   381    C    9  py     Ryd( 3p)     0.00004       1.52028
   382    C    9  pz     Val( 2p)     0.75545      -0.10800
   383    C    9  pz     Ryd( 5p)     0.00044       1.19057
   384    C    9  pz     Ryd( 4p)     0.00022       0.91102
   385    C    9  pz     Ryd( 3p)     0.00005       0.86627
   386    C    9  dxy    Ryd( 4d)     0.00235       3.06696
   387    C    9  dxy    Ryd( 3d)     0.00030       2.49695
   388    C    9  dxy    Ryd( 5d)     0.00005       3.97926
   389    C    9  dxz    Ryd( 4d)     0.00138       2.21858
   390    C    9  dxz    Ryd( 3d)     0.00006       1.87987
   391    C    9  dxz    Ryd( 5d)     0.00008       2.79773
   392    C    9  dyz    Ryd( 4d)     0.00177       2.28279
   393    C    9  dyz    Ryd( 3d)     0.00019       2.00091
   394    C    9  dyz    Ryd( 5d)     0.00007       2.85038
   395    C    9  dx2y2  Ryd( 4d)     0.00083       3.25743
   396    C    9  dx2y2  Ryd( 3d)     0.00021       2.69146
   397    C    9  dx2y2  Ryd( 5d)     0.00008       4.09789
   398    C    9  dz2    Ryd( 3d)     0.00041       2.89853
   399    C    9  dz2    Ryd( 4d)     0.00039       3.14048
   400    C    9  dz2    Ryd( 5d)     0.00013       3.65609
   401    C    9  f(0)   Ryd( 5f)     0.00011       3.74726
   402    C    9  f(0)   Ryd( 4f)     0.00003       2.26443
   403    C    9  f(C1)  Ryd( 5f)     0.00011       3.83377
   404    C    9  f(C1)  Ryd( 4f)     0.00001       3.19466
   405    C    9  f(S1)  Ryd( 5f)     0.00006       3.85162
   406    C    9  f(S1)  Ryd( 4f)     0.00003       3.33458
   407    C    9  f(C2)  Ryd( 5f)     0.00001       3.76608
   408    C    9  f(C2)  Ryd( 4f)     0.00004       2.71598
   409    C    9  f(S2)  Ryd( 5f)     0.00003       3.71922
   410    C    9  f(S2)  Ryd( 4f)     0.00004       2.61952
   411    C    9  f(C3)  Ryd( 5f)     0.00007       5.00565
   412    C    9  f(C3)  Ryd( 4f)     0.00004       3.78623
   413    C    9  f(S3)  Ryd( 4f)     0.00008       4.79200
   414    C    9  f(S3)  Ryd( 5f)     0.00002       8.42663
 
   415    O   10  S      Cor( 1S)     1.99979     -19.31084
   416    O   10  S      Val( 2S)     1.70593      -0.98250
   417    O   10  S      Ryd( 4S)     0.00059       3.11536
   418    O   10  S      Ryd( 3S)     0.00014       1.96324
   419    O   10  S      Ryd( 5S)     0.00002       8.17885
   420    O   10  px     Val( 2p)     1.87048      -0.32731
   421    O   10  px     Ryd( 4p)     0.00187       1.29907
   422    O   10  px     Ryd( 3p)     0.00012       0.93374
   423    O   10  px     Ryd( 5p)     0.00002       4.51666
   424    O   10  py     Val( 2p)     1.54237      -0.31705
   425    O   10  py     Ryd( 4p)     0.00069       1.71622
   426    O   10  py     Ryd( 3p)     0.00011       0.78308
   427    O   10  py     Ryd( 5p)     0.00008       5.53788
   428    O   10  pz     Val( 2p)     1.49337      -0.27930
   429    O   10  pz     Ryd( 4p)     0.00074       1.07624
   430    O   10  pz     Ryd( 3p)     0.00002       0.61966
   431    O   10  pz     Ryd( 5p)     0.00001       4.16196
   432    O   10  dxy    Ryd( 3d)     0.00516       1.88186
   433    O   10  dxy    Ryd( 4d)     0.00007       2.39218
   434    O   10  dxy    Ryd( 5d)     0.00005       6.49283
   435    O   10  dxz    Ryd( 3d)     0.00018       1.42983
   436    O   10  dxz    Ryd( 4d)     0.00001       1.85006
   437    O   10  dxz    Ryd( 5d)     0.00001       6.43178
   438    O   10  dyz    Ryd( 3d)     0.00641       1.60053
   439    O   10  dyz    Ryd( 4d)     0.00003       1.92017
   440    O   10  dyz    Ryd( 5d)     0.00003       6.32879
   441    O   10  dx2y2  Ryd( 3d)     0.00823       2.09460
   442    O   10  dx2y2  Ryd( 4d)     0.00009       3.54783
   443    O   10  dx2y2  Ryd( 5d)     0.00001       6.56847
   444    O   10  dz2    Ryd( 3d)     0.00287       1.66239
   445    O   10  dz2    Ryd( 4d)     0.00007       2.52770
   446    O   10  dz2    Ryd( 5d)     0.00001       6.46587
   447    O   10  f(0)   Ryd( 4f)     0.00015       3.09404
   448    O   10  f(0)   Ryd( 5f)     0.00000       5.62903
   449    O   10  f(C1)  Ryd( 4f)     0.00003       3.05779
   450    O   10  f(C1)  Ryd( 5f)     0.00001       5.64746
   451    O   10  f(S1)  Ryd( 4f)     0.00015       3.88299
   452    O   10  f(S1)  Ryd( 5f)     0.00001       5.96812
   453    O   10  f(C2)  Ryd( 4f)     0.00033       3.17202
   454    O   10  f(C2)  Ryd( 5f)     0.00001       5.73849
   455    O   10  f(S2)  Ryd( 4f)     0.00002       3.02431
   456    O   10  f(S2)  Ryd( 5f)     0.00001       5.83707
   457    O   10  f(C3)  Ryd( 4f)     0.00044       3.61883
   458    O   10  f(C3)  Ryd( 5f)     0.00003       6.07367
   459    O   10  f(S3)  Ryd( 4f)     0.00035       4.10532
   460    O   10  f(S3)  Ryd( 5f)     0.00002       6.18941
 
   461    O   11  S      Cor( 1S)     1.99978     -19.44702
   462    O   11  S      Val( 2S)     1.67221      -1.01912
   463    O   11  S      Ryd( 4S)     0.00039       1.87507
   464    O   11  S      Ryd( 3S)     0.00008       1.81638
   465    O   11  S      Ryd( 5S)     0.00002      10.06716
   466    O   11  px     Val( 2p)     1.40874      -0.34134
   467    O   11  px     Ryd( 3p)     0.00087       1.19929
   468    O   11  px     Ryd( 4p)     0.00010       1.51372
   469    O   11  px     Ryd( 5p)     0.00002       4.60123
   470    O   11  py     Val( 2p)     1.75369      -0.39608
   471    O   11  py     Ryd( 3p)     0.00070       1.14893
   472    O   11  py     Ryd( 4p)     0.00006       1.52922
   473    O   11  py     Ryd( 5p)     0.00007       4.21658
   474    O   11  pz     Val( 2p)     1.85100      -0.40198
   475    O   11  pz     Ryd( 3p)     0.00109       0.92190
   476    O   11  pz     Ryd( 4p)     0.00002       1.04640
   477    O   11  pz     Ryd( 5p)     0.00001       3.69944
   478    O   11  dxy    Ryd( 3d)     0.00683       2.09084
   479    O   11  dxy    Ryd( 4d)     0.00008       2.34846
   480    O   11  dxy    Ryd( 5d)     0.00005       7.01721
   481    O   11  dxz    Ryd( 3d)     0.00027       1.30811
   482    O   11  dxz    Ryd( 4d)     0.00009       1.90684
   483    O   11  dxz    Ryd( 5d)     0.00002       6.54014
   484    O   11  dyz    Ryd( 3d)     0.00443       1.24778
   485    O   11  dyz    Ryd( 4d)     0.00001       1.89561
   486    O   11  dyz    Ryd( 5d)     0.00002       6.50288
   487    O   11  dx2y2  Ryd( 3d)     0.00297       1.72520
   488    O   11  dx2y2  Ryd( 4d)     0.00011       2.57995
   489    O   11  dx2y2  Ryd( 5d)     0.00004       6.71651
   490    O   11  dz2    Ryd( 3d)     0.00298       1.53198
   491    O   11  dz2    Ryd( 4d)     0.00014       2.31503
   492    O   11  dz2    Ryd( 5d)     0.00001       6.75346
   493    O   11  f(0)   Ryd( 4f)     0.00051       2.80399
   494    O   11  f(0)   Ryd( 5f)     0.00001       5.94826
   495    O   11  f(C1)  Ryd( 4f)     0.00026       3.67146
   496    O   11  f(C1)  Ryd( 5f)     0.00001       6.23192
   497    O   11  f(S1)  Ryd( 4f)     0.00012       3.15904
   498    O   11  f(S1)  Ryd( 5f)     0.00001       6.16562
   499    O   11  f(C2)  Ryd( 4f)     0.00012       2.80429
   500    O   11  f(C2)  Ryd( 5f)     0.00001       6.05623
   501    O   11  f(S2)  Ryd( 4f)     0.00001       2.96204
   502    O   11  f(S2)  Ryd( 5f)     0.00001       6.06450
   503    O   11  f(C3)  Ryd( 4f)     0.00008       3.73309
   504    O   11  f(C3)  Ryd( 5f)     0.00002       6.45577
   505    O   11  f(S3)  Ryd( 4f)     0.00012       4.65496
   506    O   11  f(S3)  Ryd( 5f)     0.00006       6.60152
 
   507    H   12  S      Val( 1S)     0.78813      -0.00452
   508    H   12  S      Ryd( 4S)     0.00022       1.89020
   509    H   12  S      Ryd( 2S)     0.00007       0.35623
   510    H   12  S      Ryd( 3S)     0.00002       1.41806
   511    H   12  px     Ryd( 2p)     0.00030       1.10234
   512    H   12  px     Ryd( 4p)     0.00004       3.86455
   513    H   12  px     Ryd( 3p)     0.00003       2.17502
   514    H   12  py     Ryd( 2p)     0.00030       1.18939
   515    H   12  py     Ryd( 4p)     0.00006       3.85713
   516    H   12  py     Ryd( 3p)     0.00002       2.43424
   517    H   12  pz     Ryd( 2p)     0.00048       1.20853
   518    H   12  pz     Ryd( 4p)     0.00011       3.99814
   519    H   12  pz     Ryd( 3p)     0.00002       3.22364
[...]
 306,0.00417565,-0.00062909,0.00025378,0.00070269,0.21847617,-0.0959769
 6,-0.59498886,-0.28438529,0.12609017,0.67496064,0.00093964,-0.00070783
 ,0.00011860,0.00018860,-0.00018660,-0.00636743,-0.00355076,0.00177000,
 -0.00231227,-0.00372747,0.00178372,0.00646250,-0.00051109,-0.00026033,
 0.00045665,-0.02870817,0.02273751,-0.01441336,0.00721189,-0.00256296,0
 .00047293,-0.00040456,0.00056182,0.00059837,-0.22216750,0.08320707,0.0
 1144345,-0.05176104,0.04153256,0.05306146,0.37187691,-0.00073507,0.000
 03067,-0.00007582,-0.00033621,-0.00059279,0.00349557,0.00171520,-0.001
 41928,0.00123975,0.00202613,-0.00086103,-0.00356044,-0.00024313,-0.000
 82385,-0.00015122,0.02369346,-0.00070031,0.00819541,-0.00263695,0.0038
 9647,0.00006928,0.00057129,0.00038533,-0.00029386,0.08452618,-0.112048
 74,-0.00360773,0.04103681,0.00861138,-0.02730484,-0.18326059,0.1397074
 5,0.00074689,-0.00041293,-0.00009065,-0.00253596,0.00142919,-0.0022305
 4,-0.00104946,0.00055984,-0.00030173,0.00068064,-0.00044898,0.00206706
 ,0.00001856,0.00008575,-0.00327807,-0.03756080,0.02066578,0.00177565,0
 .00221590,-0.00086727,-0.00538002,0.00032891,-0.00016456,0.00016202,-0
 .01969654,0.01315849,-0.12745926,0.06482507,-0.03364350,-0.00011626,0.
 08582480,-0.06966969,0.59568514,-0.23876036,-0.11024224,0.04815581,-0.
 02729888,-0.00344581,0.00073498,-0.00082608,-0.00250706,-0.00293361,-0
 .00094603,0.00103329,-0.00127627,0.00013965,0.00047050,-0.00023478,-0.
 00179122,0.00111105,0.00012665,0.00095380,-0.00057637,0.00373363,-0.00
 011384,0.00010036,-0.00036535,0.00027287,-0.00002366,0.00111395,0.0001
 3669,-0.00004241,-0.00058319,-0.00019124,0.00009374,-0.00018378,0.2678
 7906,-0.11545817,-0.11534824,0.02897677,0.01918859,0.00930459,-0.00439
 162,0.00170665,0.00034776,0.00142501,0.00052038,-0.00092600,0.00007406
 ,-0.00006425,-0.00026406,0.00011823,0.00025995,-0.00053374,-0.00021455
 ,-0.00028005,0.00121597,-0.00054230,-0.00056986,0.00032751,0.00008846,
 -0.00020227,-0.00005249,-0.00012843,0.00006263,-0.00002024,0.00007437,
 0.00011725,-0.00002810,0.00001897,0.11687178,0.11893710,0.05288909,0.0
 2907701,-0.06234079,-0.02054543,-0.00578395,0.00169672,0.00100245,-0.0
 0206347,-0.00113874,-0.00108229,0.00037943,-0.00082274,0.00011506,0.00
 033695,-0.00013348,-0.00081409,0.00091745,0.00045881,-0.00012950,-0.00
 085317,0.00199977,0.00008086,0.00032103,0.00005269,0.00007459,0.000365
 30,0.00053743,0.00013736,-0.00013013,-0.00023449,-0.00003697,-0.000057
 32,-0.00007446,-0.04945730,-0.03323794,0.06193339,-0.06107976,0.004233
 14,0.06806967,0.00147523,-0.00040813,-0.03495667,0.00164751,-0.0006991
 9,-0.00104853,-0.00030285,0.00013213,-0.00079567,-0.00002130,-0.000087
 68,0.00008162,-0.00045056,0.00053260,-0.00112106,-0.00371922,0.0021266
 5,0.00133623,-0.00059233,0.00045496,0.00034402,-0.00034189,0.00021207,
 0.00030480,0.00007265,-0.00004856,-0.00002456,-0.00012923,0.00006269,-
 0.00016002,-0.00338692,0.00368976,0.02608157,0.06692322,0.00475215,-0.
 05029938,-0.02717503,-0.00173068,-0.00148437,0.01975875,-0.00088406,0.
 00070089,0.00051112,0.00010221,-0.00017434,0.00041789,-0.00008623,-0.0
 0013483,-0.00005347,0.00047926,0.00015563,0.00065123,0.00227455,-0.000
 82913,-0.00074187,0.00047219,0.00001950,-0.00018384,0.00022097,-0.0000
 4955,-0.00017274,-0.00004656,0.00000698,0.00001452,0.00006272,-0.00006
 091,0.00009000,-0.00261440,0.00129228,0.01669702,-0.00896660,0.0506260
 2,0.05420422,-0.01965566,-0.31645474,0.00022423,0.00069170,-0.02307172
 ,0.00351431,-0.00194543,0.00160793,-0.00001699,0.00000660,0.00009238,-
 0.00001425,-0.00000196,0.00003479,0.00000044,0.00004218,-0.00051047,-0
 .00164148,0.00083158,0.00123370,-0.00021054,0.00010799,0.00036781,-0.0
 0005299,0.00001992,0.00028140,-0.00004146,0.00002354,-0.00003766,-0.00
 013285,0.00007517,-0.00010987,0.00125508,-0.00054094,-0.00298041,-0.05
 864904,0.02095027,0.34421185,-0.04914076,0.00993887,0.00304858,-0.0087
 5522,0.03035696,0.00536412,0.00043015,0.00260075,-0.00254578,-0.001586
 46,0.00007858,-0.00081785,-0.00031157,-0.00034903,-0.00025289,-0.00153
 322,0.00040797,0.00020616,0.00143896,-0.00007066,0.00251619,0.00042321
 ,-0.00019833,-0.00028225,0.00013534,-0.00032297,0.00069378,0.00002460,
 0.00001109,-0.00037586,-0.00017385,0.00013542,-0.00011272,0.00344586,-
 0.02636016,-0.00821138,-0.00062647,0.00638653,0.00158152,0.05638600,0.
 01482381,-0.29772213,-0.06904223,0.00895857,-0.01046290,0.00147251,-0.
 00192497,-0.00096330,0.00159942,0.00059800,-0.00033879,0.00109940,0.00
 017154,0.00021207,0.00015859,0.00136432,-0.00079455,-0.00002824,-0.000
 15045,0.00078298,-0.00292637,0.00043005,-0.00021114,0.00025880,-0.0000
 6042,0.00014681,-0.00089072,-0.00014589,0.00007077,0.00046259,0.000100
 74,-0.00005986,0.00014858,0.00033200,-0.01380469,-0.00525352,-0.000789
 86,0.00025286,-0.00060382,-0.02272171,0.32272968,0.00579763,-0.0731618
 8,-0.06940721,-0.00621464,0.02066988,0.00287143,0.00223100,0.00038381,
 -0.00101057,-0.00089636,0.00073274,-0.00078616,-0.00021252,-0.00027041
 ,-0.00015618,-0.00121096,0.00010738,0.00043429,0.00060829,0.00050986,0
 .00197269,-0.00020249,-0.00025903,0.00004356,-0.00028365,-0.00030189,0
 .00048195,0.00018421,-0.00002327,-0.00021645,0.00002954,0.00006889,-0.
 00006527,-0.00001738,0.00804874,0.00195855,0.00027075,-0.03060950,-0.0
 0473065,-0.00060607,0.07357790,0.06943648,0.00024486,0.00036369,0.0003
 5837,-0.00148210,0.00207466,0.00159525,-0.00124249,-0.00112456,0.00194
 919,-0.02312226,-0.01142395,-0.01175827,-0.21623882,-0.10385627,-0.081
 30765,0.00176649,0.00021221,0.00023511,-0.00099442,0.00105245,-0.00141
 975,0.00009184,-0.00003488,0.00004507,-0.00205895,0.00048804,-0.000377
 58,0.00047272,-0.00028111,0.00011735,0.00098257,-0.00001999,-0.0004175
 6,-0.00000223,-0.00000675,0.00000832,0.00000644,-0.00003895,-0.0000012
 1,-0.00016394,0.00009399,-0.00010063,0.23779881,-0.00011370,-0.0002641
 1,-0.00018028,0.00058003,-0.00165763,-0.00027090,0.00173698,0.00019208
 ,-0.00069596,0.01447759,0.00807338,0.00824093,-0.10398740,-0.10541980,
 -0.05056968,-0.00053614,0.00044287,-0.00015923,0.00009641,-0.00027826,
 0.00045796,-0.00003242,0.00001291,-0.00002746,-0.00068552,0.00063823,-
 0.00018460,0.00034051,-0.00025909,-0.00022924,0.00063039,-0.00026935,-
 0.00035391,-0.00001352,0.00000479,-0.00001912,0.00000457,0.00002216,0.
 00000624,0.00010709,-0.00005874,0.00006070,0.11001653,0.11423596,-0.00
 014486,-0.00017573,-0.00013774,0.00121591,-0.00057928,-0.00073975,-0.0
 0094326,0.00034076,0.00001293,0.00774575,0.00724156,0.00467848,-0.0817
 1811,-0.05167206,-0.08692167,-0.00048202,0.00001613,-0.00136388,0.0001
 7858,-0.00028392,0.00078353,-0.00009369,-0.00007189,0.00003216,0.00207
 997,-0.00088066,0.00077977,-0.00040384,0.00018450,-0.00020672,-0.00083
 262,0.00064309,-0.00096617,0.00000667,0.00001214,0.00000570,0.00000503
 ,-0.00001212,-0.00000625,0.00006196,-0.00005101,0.00006181,0.08953811,
 0.05576396,0.09030175,0.00004318,-0.00006373,-0.00004938,-0.00017600,-
 0.00005527,-0.00041716,0.00205961,-0.00122230,-0.00001127,-0.00301985,
 -0.00078358,0.03278865,-0.04784497,-0.00045735,0.00932485,-0.00366835,
 0.00270595,-0.00081489,0.00006087,0.00012316,0.00158358,-0.00032553,0.
 00018043,-0.00038145,-0.00113009,0.00051701,-0.00078847,0.00032187,-0.
 00023429,0.00022909,0.00080170,-0.00012596,-0.00041563,-0.00001279,0.0
 0000386,-0.00001330,-0.00006058,0.00004886,-0.00001719,0.00000732,-0.0
 0000176,-0.00001661,0.00295537,0.00233889,-0.02524097,0.05145224,-0.00
 006448,-0.00004765,0.00002529,-0.00007693,-0.00027357,0.00018541,-0.00
 114759,0.00040944,-0.00004014,0.00051492,-0.00153323,-0.01729341,-0.00
 064979,-0.04788981,0.00633448,0.00263328,-0.00014628,0.00045074,0.0002
 0650,0.00033362,-0.00081467,0.00015968,-0.00011591,0.00019728,0.000504
 00,-0.00051864,0.00040031,-0.00023241,0.00003445,-0.00011338,-0.000148
 57,0.00060559,0.00026264,-0.00001777,0.00000833,0.00001049,0.00004748,
 0.00000359,0.00001055,0.00001632,-0.00001227,0.00000471,0.00241747,-0.
 00032852,-0.01569388,-0.00251034,0.04715856,-0.00006149,0.00003108,-0.
 00004037,0.00014392,-0.00011573,0.00064687,-0.00183312,0.00094100,0.00
 091357,0.00126511,-0.00030930,-0.01101048,0.01399510,0.00381879,-0.323
 87654,0.00094157,-0.00049646,0.00102506,-0.00043119,0.00027098,-0.0005
 2768,0.00010354,-0.00006484,0.00018642,-0.00047085,0.00022934,0.000348
 23,0.00018211,-0.00008762,-0.00033689,0.00012496,-0.00002859,-0.000405
 06,0.00003006,-0.00001206,0.00000762,0.00002447,-0.00001176,-0.0000042
 8,0.00002794,-0.00002027,0.00000738,0.00091624,0.00068445,-0.00939353,
 -0.01522036,-0.00433188,0.35001820,-0.00024061,-0.00045206,0.00031651,
 -0.00289910,-0.00034868,0.00101177,-0.00055280,0.00208004,0.00177252,-
 0.00227267,0.02904671,-0.01176552,-0.04339129,0.00679438,-0.00066943,0
 .00099217,-0.00107919,0.00027445,-0.00099431,0.00015478,-0.00121926,0.
 00006671,-0.00005554,0.00004555,-0.00015151,0.00066135,-0.00004372,-0.
 00006045,-0.00003918,0.00025917,-0.00013870,-0.00014772,0.00008447,-0.
 00018195,0.00010301,-0.00010835,0.00003226,0.00002258,-0.00000306,0.00
 001247,-0.00000489,0.00002026,0.00083514,-0.02496958,0.00909146,-0.001
 49767,-0.00164475,0.00010025,0.05042877,0.00005756,0.00020369,-0.00017
 728,0.00115662,-0.00019876,-0.00111157,-0.00055477,-0.00048547,-0.0012
 9887,0.00193559,-0.01191747,0.00431012,0.00691282,-0.28966181,0.083054
 22,-0.00028100,0.00119017,0.00004554,0.00098134,-0.00030681,0.00090043
 ,-0.00005082,0.00003160,-0.00002461,0.00165207,-0.00127320,0.00034180,
 -0.00061183,0.00025965,0.00003686,-0.00073651,0.00082208,0.00063193,0.
 00007507,-0.00004163,0.00004689,-0.00002181,-0.00000464,-0.00000294,0.
 00000229,-0.00000886,0.00000300,0.00007180,-0.01504218,0.00515553,-0.0
 0046157,0.00227470,-0.00041226,-0.01003536,0.31407000,0.00006695,0.000
 22316,-0.00012210,0.00115633,-0.00067396,-0.00078111,-0.00086139,0.000
 64032,0.00000166,-0.00189560,-0.01051685,0.00381843,0.00003365,0.08399
 784,-0.07551669,-0.00021772,0.00052037,-0.00133602,0.00033858,-0.00005
 726,0.00081138,0.00000594,0.00011536,0.00004024,0.00195909,-0.00136335
 ,0.00078542,-0.00041147,0.00026441,-0.00019398,-0.00101552,0.00045229,
 -0.00092892,0.00007304,-0.00002719,0.00006168,0.00001315,0.00000378,-0
 .00000592,-0.00000628,-0.00001370,0.00000596,0.00063076,-0.01246306,0.
 00323434,-0.00056950,0.03041991,-0.00754434,0.00078839,-0.09155407,0.0
 7782166,-0.00031760,0.00040208,-0.00050635,-0.00106465,0.00109089,0.00
 001623,-0.00261652,-0.00024637,0.00127024,0.00048379,-0.00076407,0.001
 37012,0.00002355,-0.00004381,-0.00007996,-0.00116506,0.00067291,-0.001
 95163,0.01283405,0.01547021,0.01562936,-0.10076946,-0.07872775,-0.0768
 1650,-0.00022142,0.00065811,0.00308881,0.00004411,-0.00040381,-0.00158
 591,-0.00020468,-0.00014884,-0.00032097,0.00021405,0.00008217,0.000228
 60,0.00014368,-0.00002129,0.00001698,-0.00001902,-0.00020519,-0.000049
 74,-0.00002583,0.00001126,0.00000692,0.00003561,-0.00001664,-0.0000121
 5,-0.00000867,0.00002042,-0.00002939,0.10837195,0.00003666,-0.00010001
 ,0.00028649,-0.00011601,-0.00062152,0.00203677,0.00160491,-0.00066516,
 -0.00044660,-0.00030031,0.00039655,-0.00131138,-0.00001955,0.00003497,
 0.00004331,0.00087655,0.00081928,0.00108480,-0.00333220,-0.00584921,-0
 .00614606,-0.07804197,-0.15838777,-0.11120525,0.00090744,-0.00067846,-
 0.00334547,-0.00131772,0.00105913,0.00159854,-0.00066946,0.00020571,0.
 00055699,-0.00011605,-0.00010458,-0.00017180,-0.00010683,0.00000389,-0
 .00000016,0.00004783,0.00005626,0.00002334,0.00002786,0.00001124,-0.00
 000344,-0.00001377,0.00000164,0.00001670,0.00000338,-0.00002300,0.0000
 0084,0.08561557,0.16961096,0.00005804,-0.00029092,-0.00007385,0.002019
 13,-0.00243179,0.00013244,0.00139658,0.00079078,-0.00080079,-0.0002954
 5,0.00039893,-0.00102134,0.00000257,-0.00003575,0.00007764,-0.00069796
 ,0.00154532,0.00048125,-0.00747554,-0.01430440,-0.01840849,-0.07790319
 ,-0.11133343,-0.14698248,-0.00011609,-0.00056007,0.00092316,0.00024670
 ,0.00037426,-0.00061780,-0.00004390,-0.00012586,-0.00007934,0.00003437
 ,0.00010405,0.00010356,0.00002667,0.00002636,-0.00001355,-0.00011578,-
 0.00007043,-0.00018087,0.00003605,-0.00001202,-0.00000773,-0.00002308,
 0.00000671,0.00000690,0.00003212,-0.00001650,0.00000475,0.07976768,0.1
 2195021,0.16327879,-0.00035362,0.00001786,-0.00051126,-0.00122677,-0.0
 0009461,-0.00178898,-0.00192487,0.00206451,0.00116850,0.00086504,-0.00
 013241,0.00190274,0.00006313,0.00001053,-0.00007800,-0.00035934,0.0014
 6068,-0.00189299,-0.00671018,-0.01691283,0.01298138,-0.07356387,-0.066
 15145,0.04957535,-0.00141173,-0.00009158,0.00437667,0.00163401,-0.0001
 8631,-0.00213855,0.00046564,-0.00019253,-0.00063227,0.00010513,0.00012
 363,-0.00003047,0.00010233,-0.00012841,0.00000585,0.00000215,-0.000258
 10,0.00025477,-0.00002953,-0.00000861,-0.00001883,0.00002656,-0.000019
 20,-0.00002081,-0.00001936,0.00003330,0.00000824,-0.00549586,-0.011603
 01,0.00784160,0.07771090,0.00034623,-0.00007046,0.00028329,0.00080186,
 -0.00037074,-0.00110752,0.00027572,-0.00125729,-0.00083559,-0.00044244
 ,-0.00001394,-0.00038254,-0.00002346,-0.00000568,0.00003652,0.00119551
 ,0.00008047,0.00105868,0.00308782,0.01241445,-0.00750897,-0.06670083,-
 0.20644691,0.11814607,-0.00002208,0.00038354,-0.00079576,0.00054494,-0
 .00042496,0.00048461,0.00028078,-0.00045715,-0.00004868,-0.00012753,-0
 .00008330,0.00003656,-0.00004631,0.00004599,-0.00001196,-0.00004596,0.
 00011497,-0.00010057,0.00000380,-0.00000232,0.00002396,-0.00002174,0.0
 0001042,0.00000047,0.00001453,0.00000504,-0.00000247,-0.00665392,-0.01
 721736,0.01197221,0.07188667,0.22279866,0.00029003,0.00010965,-0.00005
 262,0.00311641,-0.00038485,0.00010331,0.00010650,-0.00158497,-0.000911
 77,-0.00046207,0.00008741,-0.00101240,0.00002901,0.00001259,0.00007812
 ,-0.00162914,-0.00022291,0.00040760,0.00862255,0.01554107,-0.01714711,
 0.04901349,0.11921171,-0.12592639,0.00030976,0.00036748,0.00105436,-0.
 00003860,-0.00041365,-0.00068860,0.00011740,0.00007090,-0.00009468,-0.
 00000561,0.00014714,-0.00017636,-0.00000699,-0.00003747,-0.00001708,-0
 .00007573,-0.00009044,0.00010158,0.00003061,-0.00001847,0.00000590,-0.
 00001865,0.00001496,0.00000635,0.00003045,-0.00002157,-0.00000815,-0.0
 0687965,-0.01553563,0.01126135,-0.05704006,-0.12631471,0.14054422,-0.0
 0014919,0.00037898,-0.00085358,0.00131730,-0.00042854,-0.00153985,-0.0
 0045783,0.00000308,0.00066995,-0.00075080,0.00068225,-0.00049999,0.000
 13045,-0.00008124,0.00039249,0.00050157,0.00020827,0.00338942,-0.01918
 679,0.00929060,-0.01097115,-0.21367545,0.09463223,-0.09222005,0.000513
 50,-0.00042854,0.00035329,-0.00002186,0.00047424,-0.00028533,-0.000343
 26,0.00008802,-0.00014336,0.00034838,0.00022001,-0.00017740,0.00034533
 ,-0.00032517,-0.00001373,-0.00003476,-0.00058808,0.00040565,0.00001364
 ,-0.00000732,-0.00002135,-0.00011902,0.00005556,0.00005193,0.00001651,
 -0.00000851,-0.00002152,-0.01020689,0.00639241,-0.00476768,0.01025220,
 -0.00433231,0.00452985,0.23149392,0.00034369,0.00031685,0.00055201,-0.
 00043135,0.00061696,0.00079950,0.00003571,-0.00039414,-0.00038079,0.00
 061413,0.00014151,0.00026353,-0.00006026,0.00005201,-0.00019443,0.0002
 7090,0.00104590,-0.00161746,0.00783053,-0.00744306,0.00524920,0.094815
 82,-0.10110889,0.05259586,-0.00043249,-0.00001655,-0.00012478,0.000505
 88,0.00055167,0.00015374,0.00009944,-0.00024543,0.00005282,-0.00032386
 ,-0.00025175,-0.00059928,-0.00034076,-0.00008145,-0.00000649,-0.000026
 71,0.00007413,0.00051614,-0.00001054,0.00000366,0.00001124,0.00005308,
 -0.00003945,-0.00002642,-0.00000575,0.00000180,0.00001122,-0.01683298,
 0.01151660,-0.00801167,0.02012525,-0.00953470,0.00905360,-0.10620759,0
 .10480228,0.00047949,-0.00019286,-0.00163712,-0.00144100,0.00073892,0.
 00137181,0.00028174,-0.00016369,-0.00012463,0.00107146,-0.00056843,0.0
 0046209,-0.00011132,0.00007896,-0.00039190,0.00158808,-0.00065992,-0.0
 0358185,0.02113621,-0.01219076,0.01292863,-0.09617210,0.05474916,-0.10
 238813,0.00049539,-0.00018579,-0.00225282,-0.00151863,0.00082093,0.000
 83881,-0.00040586,0.00019094,0.00045732,-0.00023385,0.00001180,-0.0009
 2218,0.00020530,-0.00012312,0.00010305,-0.00011805,0.00023452,-0.00083
 107,-0.00001305,0.00001823,0.00001057,0.00010798,-0.00005683,-0.000046
 09,-0.00002307,0.00000029,0.00001007,-0.01318315,0.01055762,-0.0081070
 8,-0.01396486,0.00508952,-0.00754878,0.10171016,-0.05828887,0.11162767
 ,-0.00010751,-0.00003385,-0.00017633,-0.00055293,0.00007488,0.00053482
 ,0.00033027,-0.00012376,0.00028780,0.00004607,-0.00031494,-0.00023189,
 -0.00002021,0.00006808,0.00033243,-0.00379279,0.00417983,0.00345470,-0
 .00008657,0.00072608,-0.00166540,0.00006403,-0.00001231,-0.00002355,-0
 .01960952,0.01475003,-0.05212711,0.00493089,-0.00593313,0.00470987,-0.
 07045542,0.03389804,-0.09149618,0.00001607,-0.00000817,-0.00001143,-0.
 00003755,0.00002034,-0.00000785,0.00003922,-0.00002169,0.00000896,0.00
 019269,0.00001396,-0.00003082,0.00009050,-0.00002674,0.00014276,0.0000
 2503,-0.00013669,-0.00004574,-0.00003514,0.00012428,-0.00002284,-0.000
 13195,-0.00002128,-0.00003955,0.00001305,-0.00002217,0.00010910,0.0890
 8177,-0.00003719,-0.00016704,0.00008934,0.00009639,-0.00041475,-0.0003
 2444,-0.00012347,0.00019556,-0.00015472,-0.00033739,-0.00037939,0.0001
 0649,0.00007658,0.00009814,-0.00016512,0.00426684,0.00201456,-0.001783
 95,0.00067152,0.00073661,0.00094895,-0.00001084,0.00004681,0.00001863,
 0.01297531,-0.00444835,0.02811563,-0.00595038,-0.00241113,-0.00257877,
 0.03564888,-0.03669789,0.06794854,-0.00003711,0.00002049,-0.00001842,0
 .00001967,-0.00001120,0.00000362,0.00000582,-0.00000330,0.00001946,-0.
 00002552,-0.00005729,0.00003113,-0.00001959,0.00006498,-0.00007563,-0.
 00009807,0.00010508,0.00002241,0.00004107,-0.00006918,0.00002403,0.000
 05664,0.00003127,0.00000818,-0.00001835,-0.00000796,-0.00006063,-0.047
 20080,0.04135397,-0.00009037,0.00004323,-0.00006121,-0.00003390,-0.000
 01860,0.00053324,0.00029497,-0.00015863,0.00011529,0.00031238,-0.00018
 705,-0.00010457,0.00013354,-0.00005751,-0.00020819,0.00131150,-0.00062
 721,0.00239775,-0.00032860,0.00023102,-0.00017228,-0.00001575,0.000014
 72,-0.00008402,-0.00985618,0.00535094,0.00256259,0.00513877,-0.0028076
 0,-0.00470258,-0.13314989,0.09037408,-0.45856688,0.00002686,-0.0000047
 1,0.00000772,-0.00000073,-0.00000001,0.00000970,0.00002039,-0.00002154
 ,0.00000874,-0.00006473,-0.00004855,-0.00016347,-0.00003622,0.00002073
 ,0.00001866,0.00000506,0.00009304,-0.00015833,0.00002043,0.00001016,0.
 00002348,0.00000198,-0.00002311,0.00002115,0.00001226,-0.00000866,0.00
 002163,0.13629824,-0.09217474,0.45850159\\-0.00010306,0.00005484,-0.00
 005828,0.00019343,-0.00009031,-0.00018153,-0.00037448,0.00019186,0.000
 03002,0.00035823,-0.00018178,-0.00001952,0.00002365,-0.00001199,-0.000
 03803,0.00012300,-0.00005721,0.00029865,-0.00027613,0.00016297,-0.0000
 6455,0.00000163,-0.00000224,-0.00001104,0.00000559,-0.00011495,-0.0001
 2518,-0.00002817,0.00005716,0.00010536,0.00002003,0.00002358,-0.000027
 15,0.00001157,0.00000113,0.00000883,0.00000948,-0.00000416,0.00002891,
 0.00000310,-0.00001543,0.00001363,-0.00000346,-0.00001330,0.00000931,-
 0.00001550,0.00000826,0.00001676,0.00000847,0.00001062,0.00000977,0.00
 001745,-0.00001743,0.00000060,0.00003121,-0.00000296,0.00000201,0.0000
 0874,-0.00000766,-0.00000123,-0.00001479,0.00000901,0.00000266\\\@
 The archive entry for this job was punched.


 WE MIGHT AS WELL ATTEMPT TO INTRODUCE A NEW PLANET 
 INTO THE SOLAR SYSTEM, OR TO ANNIHILATE ONE ALREADYIN EXISTENCE, 
 AS TO CREATE OR DESTROY A PARTICLE OF HYDROGEN.
 ALL THE CHANGES WE CAN PRODUCE CONSIST IN SEPARATING PARTICLES
 THAT ARE IN A STATE OF ... COMBINATION, AND JOINING 
 THOSE THAT WERE PREVIOUSLY AT A DISTANCE.

                                    -- JOHN DALTON, 1810
 Job cpu time:       0 days 21 hours 18 minutes 22.4 seconds.
 Elapsed time:       0 days  1 hours  3 minutes 55.4 seconds.
 File lengths (MBytes):  RWF=    697 Int=      0 D2E=      0 Chk=     43 Scr=      1
 Normal termination of Gaussian 16 at Tue Mar  4 19:35:01 2025.
