 Entering Gaussian System, Link 0=g16
 Initial command:
 /usr/local/gaussian16c01/g16/l1.exe "/scr/dhuang/Gau-447766.inp" -scrdir="/scr/dhuang/"
 Entering Link 1 = /usr/local/gaussian16c01/g16/l1.exe PID=    447767.
  
 Copyright (c) 1988-2019, Gaussian, Inc.  All Rights Reserved.
  
 This is part of the Gaussian(R) 16 program.  It is based on
 the Gaussian(R) 09 system (copyright 2009, Gaussian, Inc.),
 the Gaussian(R) 03 system (copyright 2003, Gaussian, Inc.),
 the Gaussian(R) 98 system (copyright 1998, Gaussian, Inc.),
 the Gaussian(R) 94 system (copyright 1995, Gaussian, Inc.),
 the Gaussian 92(TM) system (copyright 1992, Gaussian, Inc.),
 the Gaussian 90(TM) system (copyright 1990, Gaussian, Inc.),
 the Gaussian 88(TM) system (copyright 1988, Gaussian, Inc.),
 the Gaussian 86(TM) system (copyright 1986, Carnegie Mellon
 University), and the Gaussian 82(TM) system (copyright 1983,
 Carnegie Mellon University). Gaussian is a federally registered
 trademark of Gaussian, Inc.
  
 This software contains proprietary and confidential information,
 including trade secrets, belonging to Gaussian, Inc.
  
 This software is provided under written license and may be
 used, copied, transmitted, or stored only in accord with that
 written license.
  
 The following legend is applicable only to US Government
 contracts under FAR:
  
                    RESTRICTED RIGHTS LEGEND
  
 Use, reproduction and disclosure by the US Government is
 subject to restrictions as set forth in subparagraphs (a)
 and (c) of the Commercial Computer Software - Restricted
 Rights clause in FAR 52.227-19.
  
 Gaussian, Inc.
 340 Quinnipiac St., Bldg. 40, Wallingford CT 06492
  
  
 ---------------------------------------------------------------
 Warning -- This program may not be used in any manner that
 competes with the business of Gaussian, Inc. or will provide
 assistance to any competitor of Gaussian, Inc.  The licensee
 of this program is prohibited from giving any competitor of
 Gaussian, Inc. access to this program.  By using this program,
 the user acknowledges that Gaussian, Inc. is engaged in the
 business of creating and licensing software in the field of
 computational chemistry and represents and warrants to the
 licensee that it is not a competitor of Gaussian, Inc. and that
 it will not use this program in any manner prohibited above.
 ---------------------------------------------------------------
  

 Cite this work as:
 Gaussian 16, Revision C.01,
 M. J. Frisch, G. W. Trucks, H. B. Schlegel, G. E. Scuseria, 
 M. A. Robb, J. R. Cheeseman, G. Scalmani, V. Barone, 
 G. A. Petersson, H. Nakatsuji, X. Li, M. Caricato, A. V. Marenich, 
 J. Bloino, B. G. Janesko, R. Gomperts, B. Mennucci, H. P. Hratchian, 
 J. V. Ortiz, A. F. Izmaylov, J. L. Sonnenberg, D. Williams-Young, 
 F. Ding, F. Lipparini, F. Egidi, J. Goings, B. Peng, A. Petrone, 
 T. Henderson, D. Ranasinghe, V. G. Zakrzewski, J. Gao, N. Rega, 
 G. Zheng, W. Liang, M. Hada, M. Ehara, K. Toyota, R. Fukuda, 
 J. Hasegawa, M. Ishida, T. Nakajima, Y. Honda, O. Kitao, H. Nakai, 
 T. Vreven, K. Throssell, J. A. Montgomery, Jr., J. E. Peralta, 
 F. Ogliaro, M. J. Bearpark, J. J. Heyd, E. N. Brothers, K. N. Kudin, 
 V. N. Staroverov, T. A. Keith, R. Kobayashi, J. Normand, 
 K. Raghavachari, A. P. Rendell, J. C. Burant, S. S. Iyengar, 
 J. Tomasi, M. Cossi, J. M. Millam, M. Klene, C. Adamo, R. Cammi, 
 J. W. Ochterski, R. L. Martin, K. Morokuma, O. Farkas, 
 J. B. Foresman, and D. J. Fox, Gaussian, Inc., Wallingford CT, 2019.
 
 ******************************************
 Gaussian 16:  ES64L-G16RevC.01  3-Jul-2019
                 4-Mar-2025 
 ******************************************
 %nprocshared=20
 Will use up to   20 processors via shared memory.
 %mem=10000MW
 %chk=8.chk
 ------------------------------------
 # opt freq m062x/aug-cc-pvtz pop=nbo
 ------------------------------------
 1/18=20,19=15,26=3,38=1/1,3;
 2/9=110,12=2,17=6,18=5,40=1/2;
 3/5=16,6=1,7=10,11=2,25=1,30=1,71=1,74=-55/1,2,3;
 4//1;
 5/5=2,38=5/2;
 6/7=2,8=2,9=2,10=2,28=1,40=1/1,7;
 7//1,2,3,16;
 1/18=20,19=15,26=3/3(2);
 2/9=110/2;
 99//99;
 2/9=110/2;
 3/5=16,6=1,7=10,11=2,25=1,30=1,71=1,74=-55/1,2,3;
 4/5=5,16=3,69=1/1;
 5/5=2,38=5/2;
 7//1,2,3,16;
 1/18=20,19=15,26=3/3(-5);
 2/9=110/2;
 6/7=2,8=2,9=2,10=2,19=2,28=1,40=1/1,7;
 99/9=1/99;
 -
 8
 -
 Symbolic Z-matrix:
 Charge =  0 Multiplicity = 1
 C                    -1.66557   1.80499  -0.42289 
 N                    -1.72928   0.729    -1.4311 
 N                    -1.80169   0.93594  -2.6489 
 C                    -1.83816  -0.20189  -3.19854 
 C                    -1.7852   -1.16216  -2.26646 
 C                    -1.71304  -0.50316  -1.09799 
 C                    -1.6424   -1.1271    0.1129 
 O                    -1.57717  -0.51636   1.16303 
 O                    -1.6432   -2.4859    0.1721 
 H                    -2.54436   1.77121   0.26029 
 H                    -0.7112    1.76638   0.14968 
 H                    -1.69308   2.80047  -0.92209 
 H                    -1.90365  -0.34339  -4.28495 
 H                    -1.79982  -2.2423   -2.45385 
 H                    -1.58914  -2.79301   1.08975 
 

 GradGradGradGradGradGradGradGradGradGradGradGradGradGradGradGradGradGrad
 Berny optimization.
 Initialization pass.
                           ----------------------------
                           !    Initial Parameters    !
                           ! (Angstroms and Degrees)  !
 --------------------------                            --------------------------
 ! Name  Definition              Value          Derivative Info.                !
 --------------------------------------------------------------------------------
 ! R1    R(1,2)                  1.4759         estimate D2E/DX2                !
 ! R2    R(1,10)                 1.1136         estimate D2E/DX2                !
 ! R3    R(1,11)                 1.1136         estimate D2E/DX2                !
 ! R4    R(1,12)                 1.114          estimate D2E/DX2                !
 ! R5    R(2,3)                  1.2374         estimate D2E/DX2                !
 ! R6    R(2,6)                  1.2765         estimate D2E/DX2                !
 ! R7    R(3,4)                  1.2642         estimate D2E/DX2                !
 ! R8    R(4,5)                  1.3393         estimate D2E/DX2                !
 ! R9    R(4,13)                 1.0975         estimate D2E/DX2                !
 ! R10   R(5,6)                  1.3434         estimate D2E/DX2                !
 ! R11   R(5,14)                 1.0964         estimate D2E/DX2                !
 ! R12   R(6,7)                  1.364          estimate D2E/DX2                !
 ! R13   R(7,8)                  1.2166         estimate D2E/DX2                !
 ! R14   R(7,9)                  1.3601         estimate D2E/DX2                !
 ! R15   R(9,15)                 0.9692         estimate D2E/DX2                !
 ! A1    A(2,1,10)             111.278          estimate D2E/DX2                !
 ! A2    A(2,1,11)             111.2812         estimate D2E/DX2                !
 ! A3    A(2,1,12)             110.1391         estimate D2E/DX2                !
 ! A4    A(10,1,11)            111.0884         estimate D2E/DX2                !
 ! A5    A(10,1,12)            106.4117         estimate D2E/DX2                !
 ! A6    A(11,1,12)            106.4123         estimate D2E/DX2                !
 ! A7    A(1,2,3)              123.5669         estimate D2E/DX2                !
 ! A8    A(1,2,6)              121.6615         estimate D2E/DX2                !
 ! A9    A(3,2,6)              114.7716         estimate D2E/DX2                !
 ! A10   A(2,3,4)              106.2049         estimate D2E/DX2                !
 ! A11   A(3,4,5)              109.9752         estimate D2E/DX2                !
 ! A12   A(3,4,13)             123.2393         estimate D2E/DX2                !
 ! A13   A(5,4,13)             126.7855         estimate D2E/DX2                !
 ! A14   A(4,5,6)              104.8166         estimate D2E/DX2                !
 ! A15   A(4,5,14)             125.9376         estimate D2E/DX2                !
 ! A16   A(6,5,14)             129.2458         estimate D2E/DX2                !
 ! A17   A(2,6,5)              104.2317         estimate D2E/DX2                !
 ! A18   A(2,6,7)              132.3658         estimate D2E/DX2                !
 ! A19   A(5,6,7)              123.4025         estimate D2E/DX2                !
 ! A20   A(6,7,8)              122.6447         estimate D2E/DX2                !
 ! A21   A(6,7,9)              119.7097         estimate D2E/DX2                !
 ! A22   A(8,7,9)              117.6457         estimate D2E/DX2                !
 ! A23   A(7,9,15)             110.9621         estimate D2E/DX2                !
 ! D1    D(10,1,2,3)           117.7912         estimate D2E/DX2                !
 ! D2    D(10,1,2,6)           -62.2076         estimate D2E/DX2                !
 ! D3    D(11,1,2,3)          -117.7317         estimate D2E/DX2                !
 ! D4    D(11,1,2,6)            62.2696         estimate D2E/DX2                !
 ! D5    D(12,1,2,3)             0.0311         estimate D2E/DX2                !
 ! D6    D(12,1,2,6)          -179.9676         estimate D2E/DX2                !
 ! D7    D(1,2,3,4)           -179.9961         estimate D2E/DX2                !
 ! D8    D(6,2,3,4)              0.0027         estimate D2E/DX2                !
 ! D9    D(1,2,6,5)            179.9951         estimate D2E/DX2                !
 ! D10   D(1,2,6,7)              0.0042         estimate D2E/DX2                !
 ! D11   D(3,2,6,5)             -0.0038         estimate D2E/DX2                !
 ! D12   D(3,2,6,7)           -179.9946         estimate D2E/DX2                !
 ! D13   D(2,3,4,5)             -0.0004         estimate D2E/DX2                !
 ! D14   D(2,3,4,13)          -179.9925         estimate D2E/DX2                !
 ! D15   D(3,4,5,6)             -0.0018         estimate D2E/DX2                !
 ! D16   D(3,4,5,14)           179.9967         estimate D2E/DX2                !
 ! D17   D(13,4,5,6)           179.99           estimate D2E/DX2                !
 ! D18   D(13,4,5,14)           -0.0115         estimate D2E/DX2                !
 ! D19   D(4,5,6,2)              0.0032         estimate D2E/DX2                !
 ! D20   D(4,5,6,7)            179.9951         estimate D2E/DX2                !
 ! D21   D(14,5,6,2)          -179.9953         estimate D2E/DX2                !
 ! D22   D(14,5,6,7)            -0.0034         estimate D2E/DX2                !
 ! D23   D(2,6,7,8)             -0.0282         estimate D2E/DX2                !
 ! D24   D(2,6,7,9)            179.9876         estimate D2E/DX2                !
 ! D25   D(5,6,7,8)            179.9825         estimate D2E/DX2                !
 ! D26   D(5,6,7,9)             -0.0018         estimate D2E/DX2                !
 ! D27   D(6,7,9,15)           180.0            estimate D2E/DX2                !
 ! D28   D(8,7,9,15)             0.015          estimate D2E/DX2                !
 --------------------------------------------------------------------------------
 Trust Radius=3.00D-01 FncErr=1.00D-07 GrdErr=1.00D-06 EigMax=2.50D+02 EigMin=1.00D-04
 Number of steps in this run=     76 maximum allowed number of steps=    100.
 GradGradGradGradGradGradGradGradGradGradGradGradGradGradGradGradGradGrad

                          Input orientation:                          
 ---------------------------------------------------------------------
 Center     Atomic      Atomic             Coordinates (Angstroms)
 Number     Number       Type             X           Y           Z
 ---------------------------------------------------------------------
      1          6           0       -1.665570    1.804990   -0.422889
      2          7           0       -1.729279    0.729002   -1.431104
      3          7           0       -1.801689    0.935937   -2.648896
      4          6           0       -1.838164   -0.201893   -3.198538
      5          6           0       -1.785204   -1.162157   -2.266458
      6          6           0       -1.713038   -0.503157   -1.097993
      7          6           0       -1.642400   -1.127100    0.112900
      8          8           0       -1.577170   -0.516362    1.163030
      9          8           0       -1.643200   -2.485900    0.172100
     10          1           0       -2.544358    1.771206    0.260286
     11          1           0       -0.711201    1.766383    0.149685
     12          1           0       -1.693078    2.800472   -0.922089
     13          1           0       -1.903648   -0.343387   -4.284950
     14          1           0       -1.799821   -2.242300   -2.453847
     15          1           0       -1.589138   -2.793008    1.089753
 ---------------------------------------------------------------------
                    Distance matrix (angstroms):
                    1          2          3          4          5
     1  C    0.000000
     2  N    1.475908   0.000000
     3  N    2.393510   1.237370   0.000000
     4  C    3.429518   2.000562   1.264158   0.000000
     5  C    3.495286   2.068194   2.132729   1.339285   0.000000
     6  C    2.405319   1.276496   2.117582   2.125725   1.343428
     7  C    2.980732   2.415908   3.450944   3.443828   2.383897
     8  O    2.812763   2.881596   4.085384   4.380671   3.495957
     9  O    4.332003   3.593504   4.437579   4.076260   2.778313
    10  H    1.113615   2.147404   3.116500   4.044168   3.945297
    11  H    1.113621   2.147448   3.116226   4.044101   3.945577
    12  H    1.113975   2.133399   2.543649   3.770606   4.185480
    13  H    4.425802   3.053664   2.079360   1.097542   2.181450
    14  H    4.530273   3.143186   3.184217   2.172393   1.096374
    15  H    4.841024   4.333464   5.284667   5.016506   3.736612
                    6          7          8          9         10
     6  C    0.000000
     7  C    1.364022   0.000000
     8  O    2.265139   1.216564   0.000000
     9  O    2.355692   1.360089   2.205761   0.000000
    10  H    2.776462   3.038985   2.642607   4.352335   0.000000
    11  H    2.776902   3.039857   2.643425   4.353279   1.836497
    12  H    3.308368   4.061969   3.919508   5.398654   1.783837
    13  H    3.196648   4.474767   5.460494   4.952120   5.053829
    14  H    2.206919   2.802970   4.013755   2.641869   4.901947
    15  H    3.169385   1.931923   2.277856   0.969188   4.736297
                   11         12         13         14         15
    11  H    0.000000
    12  H    1.783850   0.000000
    13  H    5.053617   4.608365   0.000000
    14  H    4.902348   5.271359   2.639998   0.000000
    15  H    4.737356   5.945193   5.914980   3.592321   0.000000
 Stoichiometry    C5H6N2O2
 Framework group  C1[X(C5H6N2O2)]
 Deg. of freedom    39
 Full point group                 C1      NOp   1
 Largest Abelian subgroup         C1      NOp   1
 Largest concise Abelian subgroup C1      NOp   1
                         Standard orientation:                         
 ---------------------------------------------------------------------
 Center     Atomic      Atomic             Coordinates (Angstroms)
 Number     Number       Type             X           Y           Z
 ---------------------------------------------------------------------
      1          6           0        0.814770    2.002325   -0.000140
      2          7           0        0.964708    0.534052   -0.000015
      3          7           0        2.059904   -0.041820    0.000010
      4          6           0        1.807195   -1.280462    0.000042
      5          6           0        0.482428   -1.477125    0.000047
      6          6           0       -0.048110   -0.242892    0.000055
      7          6           0       -1.390818   -0.002705   -0.000036
      8          8           0       -1.856430    1.121232    0.000286
      9          8           0       -2.262366   -1.046854   -0.000179
     10          1           0        0.292367    2.355125   -0.918163
     11          1           0        0.293362    2.355443    0.918334
     12          1           0        1.816260    2.490133   -0.000775
     13          1           0        2.586376   -2.053428    0.000189
     14          1           0       -0.023715   -2.449677    0.000021
     15          1           0       -3.179357   -0.733084   -0.000230
 ---------------------------------------------------------------------
 Rotational constants (GHZ):           3.0406433           1.6580770           1.0807771
 Standard basis: Aug-CC-pVTZ (5D, 7F)
 There are   645 symmetry adapted cartesian basis functions of A   symmetry.
 There are   552 symmetry adapted basis functions of A   symmetry.
   552 basis functions,   810 primitive gaussians,   645 cartesian basis functions
    33 alpha electrons       33 beta electrons
       nuclear repulsion energy       455.9186565642 Hartrees.
 NAtoms=   15 NActive=   15 NUniq=   15 SFac= 1.00D+00 NAtFMM=   60 NAOKFM=F Big=F
 Integral buffers will be    131072 words long.
 Raffenetti 2 integral format.
 Two-electron integral symmetry is turned on.
 One-electron integrals computed using PRISM.
 NBasis=   552 RedAO= T EigKep=  1.95D-06  NBF=   552
 NBsUse=   552 1.00D-06 EigRej= -1.00D+00 NBFU=   552
 ExpMin= 2.53D-02 ExpMax= 1.53D+04 ExpMxC= 5.22D+02 IAcc=3 IRadAn=         5 AccDes= 0.00D+00
 Harris functional with IExCor= 1009 and IRadAn=       5 diagonalized for initial guess.
 HarFok:  IExCor= 1009 AccDes= 0.00D+00 IRadAn=         5 IDoV= 1 UseB2=F ITyADJ=14
 ICtDFT=  3500011 ScaDFX=  1.000000  1.000000  1.000000  1.000000
 FoFCou: FMM=F IPFlag=           0 FMFlag=      100000 FMFlg1=           0
         NFxFlg=           0 DoJE=T BraDBF=F KetDBF=T FulRan=T
         wScrn=  0.000000 ICntrl=       500 IOpCl=  0 I1Cent=   200000004 NGrid=           0
         NMat0=    1 NMatS0=      1 NMatT0=    0 NMatD0=    1 NMtDS0=    0 NMtDT0=    0
 Petite list used in FoFCou.
 Requested convergence on RMS density matrix=1.00D-08 within 128 cycles.
 Requested convergence on MAX density matrix=1.00D-06.
 Requested convergence on             energy=1.00D-06.
 No special actions if energy rises.
 SCF Done:  E(RM062X) =  -454.045470747     A.U. after   14 cycles
            NFock= 14  Conv=0.47D-08     -V/T= 2.0028

 **********************************************************************

            Population analysis using the SCF Density.

 **********************************************************************

 Orbital symmetries:
       Occupied  (A) (A) (A) (A) (A) (A) (A) (A) (A) (A) (A) (A)
                 (A) (A) (A) (A) (A) (A) (A) (A) (A) (A) (A) (A)
                 (A) (A) (A) (A) (A) (A) (A) (A) (A)
       Virtual   (A) (A) (A) (A) (A) (A) (A) (A) (A) (A) (A) (A)
                 (A) (A) (A) (A) (A) (A) (A) (A) (A) (A) (A) (A)
                 (A) (A) (A) (A) (A) (A) (A) (A) (A) (A) (A) (A)
                 (A) (A) (A) (A) (A) (A) (A) (A) (A) (A) (A) (A)
                 (A) (A) (A) (A) (A) (A) (A) (A) (A) (A) (A) (A)
                 (A) (A) (A) (A) (A) (A) (A) (A) (A) (A) (A) (A)
                 (A) (A) (A) (A) (A) (A) (A) (A) (A) (A) (A) (A)
                 (A) (A) (A) (A) (A) (A) (A) (A) (A) (A) (A) (A)
                 (A) (A) (A) (A) (A) (A) (A) (A) (A) (A) (A) (A)
                 (A) (A) (A) (A) (A) (A) (A) (A) (A) (A) (A) (A)
                 (A) (A) (A) (A) (A) (A) (A) (A) (A) (A) (A) (A)
                 (A) (A) (A) (A) (A) (A) (A) (A) (A) (A) (A) (A)
                 (A) (A) (A) (A) (A) (A) (A) (A) (A) (A) (A) (A)
                 (A) (A) (A) (A) (A) (A) (A) (A) (A) (A) (A) (A)
                 (A) (A) (A) (A) (A) (A) (A) (A) (A) (A) (A) (A)
                 (A) (A) (A) (A) (A) (A) (A) (A) (A) (A) (A) (A)
                 (A) (A) (A) (A) (A) (A) (A) (A) (A) (A) (A) (A)
                 (A) (A) (A) (A) (A) (A) (A) (A) (A) (A) (A) (A)
                 (A) (A) (A) (A) (A) (A) (A) (A) (A) (A) (A) (A)
                 (A) (A) (A) (A) (A) (A) (A) (A) (A) (A) (A) (A)
                 (A) (A) (A) (A) (A) (A) (A) (A) (A) (A) (A) (A)
                 (A) (A) (A) (A) (A) (A) (A) (A) (A) (A) (A) (A)
                 (A) (A) (A) (A) (A) (A) (A) (A) (A) (A) (A) (A)
                 (A) (A) (A) (A) (A) (A) (A) (A) (A) (A) (A) (A)
                 (A) (A) (A) (A) (A) (A) (A) (A) (A) (A) (A) (A)
                 (A) (A) (A) (A) (A) (A) (A) (A) (A) (A) (A) (A)
                 (A) (A) (A) (A) (A) (A) (A) (A) (A) (A) (A) (A)
                 (A) (A) (A) (A) (A) (A) (A) (A) (A) (A) (A) (A)
                 (A) (A) (A) (A) (A) (A) (A) (A) (A) (A) (A) (A)
                 (A) (A) (A) (A) (A) (A) (A) (A) (A) (A) (A) (A)
                 (A) (A) (A) (A) (A) (A) (A) (A) (A) (A) (A) (A)
                 (A) (A) (A) (A) (A) (A) (A) (A) (A) (A) (A) (A)
                 (A) (A) (A) (A) (A) (A) (A) (A) (A) (A) (A) (A)
                 (A) (A) (A) (A) (A) (A) (A) (A) (A) (A) (A) (A)
                 (A) (A) (A) (A) (A) (A) (A) (A) (A) (A) (A) (A)
                 (A) (A) (A) (A) (A) (A) (A) (A) (A) (A) (A) (A)
                 (A) (A) (A) (A) (A) (A) (A) (A) (A) (A) (A) (A)
                 (A) (A) (A) (A) (A) (A) (A) (A) (A) (A) (A) (A)
                 (A) (A) (A) (A) (A) (A) (A) (A) (A) (A) (A) (A)
                 (A) (A) (A) (A) (A) (A) (A) (A) (A) (A) (A) (A)
                 (A) (A) (A) (A) (A) (A) (A) (A) (A) (A) (A) (A)
                 (A) (A) (A) (A) (A) (A) (A) (A) (A) (A) (A) (A)
                 (A) (A) (A) (A) (A) (A) (A) (A) (A) (A) (A) (A)
                 (A) (A) (A)
 The electronic state is 1-A.
 Alpha  occ. eigenvalues --  -19.67579 -19.61716 -14.85331 -14.77654 -10.68690
 Alpha  occ. eigenvalues --  -10.59099 -10.57319 -10.55163 -10.53559  -1.26277
 Alpha  occ. eigenvalues --   -1.23982  -1.14090  -0.98200  -0.94405  -0.81003
 Alpha  occ. eigenvalues --   -0.79261  -0.73056  -0.65431  -0.64650  -0.61119
 Alpha  occ. eigenvalues --   -0.58255  -0.54648  -0.53820  -0.51507  -0.50117
 Alpha  occ. eigenvalues --   -0.48700  -0.48376  -0.45457  -0.40718  -0.37868
 Alpha  occ. eigenvalues --   -0.36294  -0.33601  -0.33273
 Alpha virt. eigenvalues --   -0.01434  -0.00739   0.00349   0.00701   0.01823
 Alpha virt. eigenvalues --    0.02484   0.02872   0.03647   0.04690   0.05245
 Alpha virt. eigenvalues --    0.06089   0.06691   0.07070   0.07511   0.07938
 Alpha virt. eigenvalues --    0.08272   0.08594   0.08980   0.09432   0.10053
 Alpha virt. eigenvalues --    0.10218   0.10975   0.11452   0.11636   0.12375
 Alpha virt. eigenvalues --    0.12437   0.14284   0.15078   0.15448   0.15583
 Alpha virt. eigenvalues --    0.16654   0.16851   0.17669   0.18035   0.18237
 Alpha virt. eigenvalues --    0.18417   0.19161   0.19523   0.20039   0.21093
 Alpha virt. eigenvalues --    0.21913   0.22183   0.22810   0.23287   0.23371
 Alpha virt. eigenvalues --    0.24209   0.24891   0.25053   0.25739   0.26469
 Alpha virt. eigenvalues --    0.27206   0.27429   0.27809   0.29236   0.30089
 Alpha virt. eigenvalues --    0.30501   0.30874   0.31096   0.31292   0.31769
 Alpha virt. eigenvalues --    0.32924   0.33113   0.34049   0.34454   0.34653
 Alpha virt. eigenvalues --    0.35198   0.35821   0.36603   0.36975   0.37263
 Alpha virt. eigenvalues --    0.38146   0.38347   0.38854   0.40192   0.40400
 Alpha virt. eigenvalues --    0.40952   0.41080   0.41893   0.42241   0.42437
 Alpha virt. eigenvalues --    0.42638   0.43078   0.44302   0.44751   0.45499
 Alpha virt. eigenvalues --    0.46625   0.47958   0.48246   0.48770   0.48800
 Alpha virt. eigenvalues --    0.50858   0.51269   0.52477   0.52909   0.54014
 Alpha virt. eigenvalues --    0.54700   0.55116   0.55917   0.56737   0.56821
 Alpha virt. eigenvalues --    0.57349   0.58949   0.59267   0.59429   0.62376
 Alpha virt. eigenvalues --    0.63208   0.64081   0.64831   0.65092   0.65581
 Alpha virt. eigenvalues --    0.67339   0.68024   0.68721   0.69347   0.70137
 Alpha virt. eigenvalues --    0.70522   0.70839   0.71805   0.71882   0.72341
 Alpha virt. eigenvalues --    0.72993   0.73871   0.74962   0.75036   0.76918
 Alpha virt. eigenvalues --    0.76987   0.77133   0.77998   0.78353   0.79796
 Alpha virt. eigenvalues --    0.79866   0.80974   0.82335   0.82908   0.83308
 Alpha virt. eigenvalues --    0.84569   0.84845   0.85852   0.86219   0.86535
 Alpha virt. eigenvalues --    0.87780   0.87907   0.89118   0.90480   0.91020
 Alpha virt. eigenvalues --    0.91570   0.92085   0.92498   0.93328   0.94026
 Alpha virt. eigenvalues --    0.94466   0.95341   0.96491   0.97850   0.97929
 Alpha virt. eigenvalues --    0.98710   0.99694   1.00439   1.00616   1.00997
 Alpha virt. eigenvalues --    1.01944   1.02452   1.03065   1.03066   1.04907
 Alpha virt. eigenvalues --    1.06711   1.06879   1.07607   1.08590   1.09810
 Alpha virt. eigenvalues --    1.09838   1.11343   1.12310   1.13219   1.13272
 Alpha virt. eigenvalues --    1.14147   1.15251   1.16173   1.16688   1.17489
 Alpha virt. eigenvalues --    1.18298   1.20953   1.21620   1.22467   1.23314
 Alpha virt. eigenvalues --    1.24643   1.24913   1.27224   1.28256   1.28341
 Alpha virt. eigenvalues --    1.29469   1.30314   1.30979   1.31594   1.32455
 Alpha virt. eigenvalues --    1.33233   1.34894   1.35190   1.36349   1.37085
 Alpha virt. eigenvalues --    1.38118   1.39551   1.40645   1.41587   1.42009
 Alpha virt. eigenvalues --    1.43091   1.45421   1.46329   1.46531   1.47289
 Alpha virt. eigenvalues --    1.47789   1.48901   1.48984   1.50198   1.50359
 Alpha virt. eigenvalues --    1.51543   1.52056   1.53653   1.54450   1.54798
 Alpha virt. eigenvalues --    1.56005   1.57724   1.59038   1.59574   1.60896
 Alpha virt. eigenvalues --    1.63069   1.63689   1.66392   1.67323   1.67680
 Alpha virt. eigenvalues --    1.68011   1.69076   1.71786   1.72105   1.73033
 Alpha virt. eigenvalues --    1.76706   1.77610   1.78001   1.78840   1.79159
 Alpha virt. eigenvalues --    1.82033   1.82174   1.82423   1.83711   1.85435
 Alpha virt. eigenvalues --    1.85972   1.86702   1.87883   1.88268   1.89318
 Alpha virt. eigenvalues --    1.90671   1.93930   1.94508   1.95721   1.97273
 Alpha virt. eigenvalues --    1.97392   1.99210   2.01174   2.01471   2.02313
 Alpha virt. eigenvalues --    2.02544   2.06826   2.06963   2.08260   2.10993
 Alpha virt. eigenvalues --    2.12380   2.13537   2.13780   2.17073   2.18790
 Alpha virt. eigenvalues --    2.18876   2.20957   2.21769   2.22707   2.24201
 Alpha virt. eigenvalues --    2.26109   2.28623   2.28658   2.29085   2.31612
 Alpha virt. eigenvalues --    2.33203   2.35211   2.35220   2.37896   2.38365
 Alpha virt. eigenvalues --    2.39954   2.41856   2.42737   2.44911   2.48819
 Alpha virt. eigenvalues --    2.48876   2.49626   2.50234   2.53079   2.56258
 Alpha virt. eigenvalues --    2.56901   2.57804   2.62525   2.65077   2.67800
 Alpha virt. eigenvalues --    2.68537   2.69474   2.69712   2.71377   2.73771
 Alpha virt. eigenvalues --    2.73902   2.76773   2.77621   2.80638   2.80690
 Alpha virt. eigenvalues --    2.86342   2.88425   2.90523   2.93707   2.95654
 Alpha virt. eigenvalues --    2.97688   3.00970   3.03019   3.05282   3.05438
 Alpha virt. eigenvalues --    3.06806   3.09268   3.09275   3.12108   3.15679
 Alpha virt. eigenvalues --    3.17028   3.18407   3.20511   3.21250   3.22472
 Alpha virt. eigenvalues --    3.22626   3.25172   3.26438   3.26590   3.27416
 Alpha virt. eigenvalues --    3.29305   3.31785   3.32481   3.35133   3.37554
 Alpha virt. eigenvalues --    3.39003   3.41661   3.44515   3.45198   3.46608
 Alpha virt. eigenvalues --    3.49250   3.50370   3.51631   3.52716   3.53558
 Alpha virt. eigenvalues --    3.54342   3.54832   3.55579   3.56571   3.58322
 Alpha virt. eigenvalues --    3.59155   3.60424   3.62172   3.62998   3.66071
 Alpha virt. eigenvalues --    3.67838   3.68826   3.69050   3.70640   3.71988
 Alpha virt. eigenvalues --    3.74832   3.76858   3.78463   3.80117   3.81651
 Alpha virt. eigenvalues --    3.81658   3.82603   3.84843   3.87983   3.89006
 Alpha virt. eigenvalues --    3.89171   3.90732   3.90953   3.94230   3.95528
 Alpha virt. eigenvalues --    3.97125   3.97712   3.98931   4.00843   4.03486
 Alpha virt. eigenvalues --    4.04540   4.07955   4.10583   4.10727   4.14118
 Alpha virt. eigenvalues --    4.15791   4.16942   4.17308   4.20243   4.22313
 Alpha virt. eigenvalues --    4.22692   4.24756   4.24928   4.29415   4.30552
 Alpha virt. eigenvalues --    4.31868   4.33890   4.36234   4.37189   4.38073
 Alpha virt. eigenvalues --    4.43230   4.43401   4.43854   4.47494   4.51046
 Alpha virt. eigenvalues --    4.52681   4.53790   4.56380   4.57224   4.58796
 Alpha virt. eigenvalues --    4.59999   4.60765   4.65714   4.66037   4.68207
 Alpha virt. eigenvalues --    4.68710   4.69776   4.74264   4.75024   4.76830
 Alpha virt. eigenvalues --    4.77152   4.79595   4.80088   4.81292   4.82234
 Alpha virt. eigenvalues --    4.85248   4.88269   4.90101   4.91574   4.95464
 Alpha virt. eigenvalues --    4.97940   5.02583   5.06027   5.06662   5.09219
 Alpha virt. eigenvalues --    5.11615   5.15187   5.16127   5.18655   5.20391
 Alpha virt. eigenvalues --    5.23309   5.27279   5.28651   5.32074   5.35894
 Alpha virt. eigenvalues --    5.37025   5.38519   5.44636   5.47082   5.50250
 Alpha virt. eigenvalues --    5.51355   5.56219   5.56424   5.61696   5.63366
 Alpha virt. eigenvalues --    5.63464   5.68029   5.75815   5.77360   5.77482
 Alpha virt. eigenvalues --    5.81848   5.86465   5.87228   6.00371   6.06468
 Alpha virt. eigenvalues --    6.07193   6.08592   6.11140   6.19644   6.20596
 Alpha virt. eigenvalues --    6.25818   6.31225   6.33340   6.35583   6.36552
 Alpha virt. eigenvalues --    6.37764   6.42593   6.44775   6.48275   6.50970
 Alpha virt. eigenvalues --    6.57503   6.59202   6.64984   6.70978   6.71764
 Alpha virt. eigenvalues --    6.75383   6.76773   6.79900   6.82778   6.83510
 Alpha virt. eigenvalues --    6.85587   6.90298   6.93970   6.97932   7.08883
 Alpha virt. eigenvalues --    7.10417   7.13784   7.24128   7.34656   7.38892
 Alpha virt. eigenvalues --    7.52731   7.62378   7.76954   7.89676   8.05441
 Alpha virt. eigenvalues --   15.23490  15.98581  16.95894  17.69218  18.37959
 Alpha virt. eigenvalues --   19.06715  19.83779  20.32712  21.42921
          Condensed to atoms (all electrons):
               1          2          3          4          5          6
     1  C    5.923951   0.451407  -0.340088  -0.045443   0.043808  -0.258738
     2  N    0.451407   9.515104  -3.660360  -0.093277  -0.506045   0.366799
     3  N   -0.340088  -3.660360  12.896470  -0.003153   0.446482  -1.139699
     4  C   -0.045443  -0.093277  -0.003153   6.505163  -0.308378   0.213716
     5  C    0.043808  -0.506045   0.446482  -0.308378   7.777923  -0.751705
     6  C   -0.258738   0.366799  -1.139699   0.213716  -0.751705   8.057836
     7  C    0.036988  -0.130815   0.167781   0.015758  -0.581548  -0.957446
     8  O   -0.037753  -0.160222  -0.026285  -0.007222  -0.034494   0.265176
     9  O   -0.013363  -0.020852   0.004807   0.008085  -0.015302  -0.011823
    10  H    0.391430   0.061934  -0.048161  -0.002220   0.008500  -0.030956
    11  H    0.391387   0.061940  -0.048192  -0.002213   0.008473  -0.030942
    12  H    0.310766  -0.107659   0.041450   0.003900  -0.010723  -0.000052
    13  H    0.001711   0.081077  -0.210719   0.290259  -0.125169   0.045407
    14  H    0.001430   0.037775   0.049111  -0.156254   0.374358  -0.199186
    15  H   -0.000396   0.025975   0.001450   0.001129   0.018686  -0.113070
               7          8          9         10         11         12
     1  C    0.036988  -0.037753  -0.013363   0.391430   0.391387   0.310766
     2  N   -0.130815  -0.160222  -0.020852   0.061934   0.061940  -0.107659
     3  N    0.167781  -0.026285   0.004807  -0.048161  -0.048192   0.041450
     4  C    0.015758  -0.007222   0.008085  -0.002220  -0.002213   0.003900
     5  C   -0.581548  -0.034494  -0.015302   0.008500   0.008473  -0.010723
     6  C   -0.957446   0.265176  -0.011823  -0.030956  -0.030942  -0.000052
     7  C    7.111306  -0.181938   0.049173  -0.023495  -0.023442   0.021094
     8  O   -0.181938   9.381408  -0.124366  -0.018483  -0.018441   0.001799
     9  O    0.049173  -0.124366   8.571904  -0.000422  -0.000419  -0.000250
    10  H   -0.023495  -0.018483  -0.000422   0.338306   0.032664  -0.011888
    11  H   -0.023442  -0.018441  -0.000419   0.032664   0.338235  -0.011849
    12  H    0.021094   0.001799  -0.000250  -0.011888  -0.011849   0.373375
    13  H   -0.004483   0.000391  -0.000606   0.000070   0.000071  -0.000484
    14  H    0.016318  -0.001227  -0.029680   0.000205   0.000204  -0.000586
    15  H    0.129505  -0.131717   0.153706   0.000824   0.000822  -0.000153
              13         14         15
     1  C    0.001711   0.001430  -0.000396
     2  N    0.081077   0.037775   0.025975
     3  N   -0.210719   0.049111   0.001450
     4  C    0.290259  -0.156254   0.001129
     5  C   -0.125169   0.374358   0.018686
     6  C    0.045407  -0.199186  -0.113070
     7  C   -0.004483   0.016318   0.129505
     8  O    0.000391  -0.001227  -0.131717
     9  O   -0.000606  -0.029680   0.153706
    10  H    0.000070   0.000205   0.000824
    11  H    0.000071   0.000204   0.000822
    12  H   -0.000484  -0.000586  -0.000153
    13  H    0.376667  -0.045125  -0.000023
    14  H   -0.045125   0.572662   0.001721
    15  H   -0.000023   0.001721   0.622643
 Mulliken charges:
               1
     1  C   -0.857098
     2  N    1.077219
     3  N   -1.130894
     4  C   -0.419851
     5  C   -0.344866
     6  C    0.544684
     7  C    0.355243
     8  O   -0.906625
     9  O   -0.570592
    10  H    0.301692
    11  H    0.301702
    12  H    0.391260
    13  H    0.590955
    14  H    0.378273
    15  H    0.288897
 Sum of Mulliken charges =   0.00000
 Mulliken charges with hydrogens summed into heavy atoms:
               1
     1  C    0.137556
     2  N    1.077219
     3  N   -1.130894
     4  C    0.171104
     5  C    0.033408
     6  C    0.544684
     7  C    0.355243
     8  O   -0.906625
     9  O   -0.281695
 Electronic spatial extent (au):  <R**2>=           1039.8465
 Charge=              0.0000 electrons
 Dipole moment (field-independent basis, Debye):
    X=             -0.4540    Y=             -0.4191    Z=             -0.0008  Tot=              0.6179
 Quadrupole moment (field-independent basis, Debye-Ang):
   XX=            -51.7803   YY=            -48.1942   ZZ=            -52.1905
   XY=              3.0759   XZ=              0.0020   YZ=             -0.0017
 Traceless Quadrupole moment (field-independent basis, Debye-Ang):
   XX=             -1.0586   YY=              2.5275   ZZ=             -1.4689
   XY=              3.0759   XZ=              0.0020   YZ=             -0.0017
 Octapole moment (field-independent basis, Debye-Ang**2):
  XXX=            -49.6682  YYY=              3.8406  ZZZ=              0.0008  XYY=             13.4684
  XXY=            -16.2678  XXZ=             -0.0050  XZZ=             -5.9962  YZZ=              4.6238
  YYZ=             -0.0006  XYZ=              0.0005
 Hexadecapole moment (field-independent basis, Debye-Ang**3):
 XXXX=           -680.1640 YYYY=           -462.7750 ZZZZ=            -58.7538 XXXY=             24.1177
 XXXZ=              0.0151 YYYX=              8.5995 YYYZ=             -0.0029 ZZZX=              0.0014
 ZZZY=              0.0036 XXYY=           -209.3376 XXZZ=           -143.8082 YYZZ=            -94.9011
 XXYZ=             -0.0078 YYXZ=              0.0016 ZZXY=              2.3759
 N-N= 4.559186565642D+02 E-N=-1.973381673502D+03  KE= 4.527762086144D+02
 ******************************Gaussian NBO Version 3.1******************************
             N A T U R A L   A T O M I C   O R B I T A L   A N D
          N A T U R A L   B O N D   O R B I T A L   A N A L Y S I S
 ******************************Gaussian NBO Version 3.1******************************
       /RESON  / : Allow strongly delocalized NBO set

 Analyzing the SCF density

 Job title: 8                                                               

 Storage needed:    916440 in NPA,   1220743 in NBO (********** available)
 GSVD:  LWork=       -2616 too small for GESVD, short by      613746 words or      613746 for optimal perf.


 NATURAL POPULATIONS:  Natural atomic orbital occupancies 
                                                          
   NAO  Atom  No  lang   Type(AO)    Occupancy      Energy
 ----------------------------------------------------------
     1    C    1  S      Cor( 1S)     1.99942     -10.46381
     2    C    1  S      Val( 2S)     1.10297      -0.33031
     3    C    1  S      Ryd( 3S)     0.00075       1.12896
     4    C    1  S      Ryd( 5S)     0.00008       4.01221
     5    C    1  S      Ryd( 4S)     0.00003       2.43418
     6    C    1  px     Val( 2p)     1.22571      -0.14874
     7    C    1  px     Ryd( 3p)     0.00206       1.23143
     8    C    1  px     Ryd( 5p)     0.00013       1.90603
     9    C    1  px     Ryd( 4p)     0.00003       1.39549
    10    C    1  py     Val( 2p)     0.82403      -0.08562
    11    C    1  py     Ryd( 3p)     0.00137       1.19813
    12    C    1  py     Ryd( 5p)     0.00012       1.58893
    13    C    1  py     Ryd( 4p)     0.00002       1.28593
    14    C    1  pz     Val( 2p)     1.22002      -0.14954
    15    C    1  pz     Ryd( 4p)     0.00064       1.14095
    16    C    1  pz     Ryd( 5p)     0.00008       1.74765
    17    C    1  pz     Ryd( 3p)     0.00001       1.00041
    18    C    1  dxy    Ryd( 4d)     0.00054       1.72115
    19    C    1  dxy    Ryd( 5d)     0.00008       3.56561
    20    C    1  dxy    Ryd( 3d)     0.00002       1.34794
    21    C    1  dxz    Ryd( 4d)     0.00184       1.60333
    22    C    1  dxz    Ryd( 5d)     0.00001       3.41575
    23    C    1  dxz    Ryd( 3d)     0.00001       1.24746
    24    C    1  dyz    Ryd( 4d)     0.00113       1.51022
    25    C    1  dyz    Ryd( 5d)     0.00005       3.27590
    26    C    1  dyz    Ryd( 3d)     0.00004       1.15716
    27    C    1  dx2y2  Ryd( 4d)     0.00165       2.03798
    28    C    1  dx2y2  Ryd( 5d)     0.00007       3.65053
    29    C    1  dx2y2  Ryd( 3d)     0.00004       1.48938
    30    C    1  dz2    Ryd( 4d)     0.00196       1.78438
    31    C    1  dz2    Ryd( 5d)     0.00005       3.58527
    32    C    1  dz2    Ryd( 3d)     0.00002       1.63371
    33    C    1  f(0)   Ryd( 5f)     0.00001       3.91524
    34    C    1  f(0)   Ryd( 4f)     0.00004       2.13882
    35    C    1  f(C1)  Ryd( 5f)     0.00016       4.10852
    36    C    1  f(C1)  Ryd( 4f)     0.00003       3.08298
    37    C    1  f(S1)  Ryd( 5f)     0.00005       4.15316
    38    C    1  f(S1)  Ryd( 4f)     0.00006       3.51126
    39    C    1  f(C2)  Ryd( 5f)     0.00002       3.91206
    40    C    1  f(C2)  Ryd( 4f)     0.00004       2.19627
    41    C    1  f(S2)  Ryd( 5f)     0.00003       3.95810
    42    C    1  f(S2)  Ryd( 4f)     0.00002       2.52737
    43    C    1  f(C3)  Ryd( 5f)     0.00004       4.17473
    44    C    1  f(C3)  Ryd( 4f)     0.00003       2.45835
    45    C    1  f(S3)  Ryd( 5f)     0.00006       4.23315
    46    C    1  f(S3)  Ryd( 4f)     0.00006       2.76070
 
    47    N    2  S      Cor( 1S)     1.99924     -14.65506
    48    N    2  S      Val( 2S)     1.11560      -0.52233
    49    N    2  S      Ryd( 3S)     0.00335       1.71243
    50    N    2  S      Ryd( 5S)     0.00007       7.34507
    51    N    2  S      Ryd( 4S)     0.00002       4.81903
    52    N    2  px     Val( 2p)     1.18946      -0.27101
    53    N    2  px     Ryd( 4p)     0.00489       1.92836
    54    N    2  px     Ryd( 5p)     0.00021       4.34433
    55    N    2  px     Ryd( 3p)     0.00011       1.38183
    56    N    2  py     Val( 2p)     1.28451      -0.30580
    57    N    2  py     Ryd( 4p)     0.00472       2.48002
    58    N    2  py     Ryd( 5p)     0.00007       5.39549
    59    N    2  py     Ryd( 3p)     0.00005       1.24487
    60    N    2  pz     Val( 2p)     1.46740      -0.32208
    61    N    2  pz     Ryd( 4p)     0.00411       0.93484
    62    N    2  pz     Ryd( 5p)     0.00006       3.33472
    63    N    2  pz     Ryd( 3p)     0.00006       0.73545
    64    N    2  dxy    Ryd( 4d)     0.00226       4.52574
    65    N    2  dxy    Ryd( 5d)     0.00056       4.86915
    66    N    2  dxy    Ryd( 3d)     0.00008       4.28035
    67    N    2  dxz    Ryd( 3d)     0.00121       1.82906
    68    N    2  dxz    Ryd( 5d)     0.00015       3.69157
    69    N    2  dxz    Ryd( 4d)     0.00003       3.12083
    70    N    2  dyz    Ryd( 3d)     0.00058       1.77522
    71    N    2  dyz    Ryd( 5d)     0.00025       3.75953
    72    N    2  dyz    Ryd( 4d)     0.00008       3.12440
    73    N    2  dx2y2  Ryd( 3d)     0.00151       3.58620
    74    N    2  dx2y2  Ryd( 4d)     0.00061       4.52933
    75    N    2  dx2y2  Ryd( 5d)     0.00008       4.61895
    76    N    2  dz2    Ryd( 3d)     0.00183       2.20928
    77    N    2  dz2    Ryd( 4d)     0.00040       3.99073
    78    N    2  dz2    Ryd( 5d)     0.00009       5.20502
    79    N    2  f(0)   Ryd( 4f)     0.00107       1.68839
    80    N    2  f(0)   Ryd( 5f)     0.00020       4.88630
    81    N    2  f(C1)  Ryd( 4f)     0.00093       2.05912
    82    N    2  f(C1)  Ryd( 5f)     0.00015       4.91481
    83    N    2  f(S1)  Ryd( 4f)     0.00136       2.30805
    84    N    2  f(S1)  Ryd( 5f)     0.00012       4.97900
    85    N    2  f(C2)  Ryd( 4f)     0.00108       1.59399
    86    N    2  f(C2)  Ryd( 5f)     0.00006       4.91088
    87    N    2  f(S2)  Ryd( 4f)     0.00033       1.68519
    88    N    2  f(S2)  Ryd( 5f)     0.00005       5.01630
    89    N    2  f(C3)  Ryd( 4f)     0.00180       2.24780
    90    N    2  f(C3)  Ryd( 5f)     0.00018       5.60560
    91    N    2  f(S3)  Ryd( 4f)     0.00078       2.93254
    92    N    2  f(S3)  Ryd( 5f)     0.00017       5.45443
 
    93    N    3  S      Cor( 1S)     1.99937     -14.55779
    94    N    3  S      Val( 2S)     1.33150      -0.54591
    95    N    3  S      Ryd( 4S)     0.00223       3.29480
    96    N    3  S      Ryd( 3S)     0.00010       2.12772
    97    N    3  S      Ryd( 5S)     0.00002       9.34724
    98    N    3  px     Val( 2p)     1.39734      -0.22001
    99    N    3  px     Ryd( 4p)     0.00418       1.67111
   100    N    3  px     Ryd( 3p)     0.00012       1.58035
   101    N    3  px     Ryd( 5p)     0.00006       3.34904
   102    N    3  py     Val( 2p)     1.26357      -0.20190
   103    N    3  py     Ryd( 4p)     0.00542       2.24923
   104    N    3  py     Ryd( 3p)     0.00011       1.14102
   105    N    3  py     Ryd( 5p)     0.00006       3.49223
   106    N    3  pz     Val( 2p)     1.18767      -0.21349
   107    N    3  pz     Ryd( 4p)     0.00187       1.30816
   108    N    3  pz     Ryd( 3p)     0.00006       0.95909
   109    N    3  pz     Ryd( 5p)     0.00001       2.51352
   110    N    3  dxy    Ryd( 3d)     0.00489       2.39592
   111    N    3  dxy    Ryd( 4d)     0.00024       3.41132
   112    N    3  dxy    Ryd( 5d)     0.00012       3.93833
   113    N    3  dxz    Ryd( 3d)     0.00382       1.52678
   114    N    3  dxz    Ryd( 5d)     0.00004       2.96495
   115    N    3  dxz    Ryd( 4d)     0.00009       2.89268
   116    N    3  dyz    Ryd( 3d)     0.00093       1.59576
   117    N    3  dyz    Ryd( 5d)     0.00018       3.44736
   118    N    3  dyz    Ryd( 4d)     0.00002       2.83924
   119    N    3  dx2y2  Ryd( 3d)     0.00452       2.63021
   120    N    3  dx2y2  Ryd( 5d)     0.00028       4.02899
   121    N    3  dx2y2  Ryd( 4d)     0.00024       3.44503
   122    N    3  dz2    Ryd( 3d)     0.00705       1.80876
   123    N    3  dz2    Ryd( 5d)     0.00004       3.80822
   124    N    3  dz2    Ryd( 4d)     0.00010       3.77479
   125    N    3  f(0)   Ryd( 5f)     0.00009       4.82458
   126    N    3  f(0)   Ryd( 4f)     0.00005       2.35534
   127    N    3  f(C1)  Ryd( 5f)     0.00006       4.84545
   128    N    3  f(C1)  Ryd( 4f)     0.00004       3.56647
   129    N    3  f(S1)  Ryd( 5f)     0.00012       4.99526
   130    N    3  f(S1)  Ryd( 4f)     0.00006       3.37433
   131    N    3  f(C2)  Ryd( 5f)     0.00004       4.89497
   132    N    3  f(C2)  Ryd( 4f)     0.00005       2.53567
   133    N    3  f(S2)  Ryd( 5f)     0.00004       4.91270
   134    N    3  f(S2)  Ryd( 4f)     0.00002       2.57592
   135    N    3  f(C3)  Ryd( 5f)     0.00004       5.31264
   136    N    3  f(C3)  Ryd( 4f)     0.00016       3.84120
   137    N    3  f(S3)  Ryd( 5f)     0.00018       5.25737
   138    N    3  f(S3)  Ryd( 4f)     0.00005       4.11389
 
   139    C    4  S      Cor( 1S)     1.99919     -10.39485
   140    C    4  S      Val( 2S)     0.91806      -0.16576
   141    C    4  S      Ryd( 4S)     0.00275       1.90173
   142    C    4  S      Ryd( 5S)     0.00009       2.48819
   143    C    4  S      Ryd( 3S)     0.00006       1.34193
   144    C    4  px     Val( 2p)     1.10453      -0.08197
   145    C    4  px     Ryd( 5p)     0.00613       1.73457
   146    C    4  px     Ryd( 4p)     0.00006       1.70477
   147    C    4  px     Ryd( 3p)     0.00003       0.67334
   148    C    4  py     Val( 2p)     0.98295      -0.04511
   149    C    4  py     Ryd( 4p)     0.00667       1.69689
   150    C    4  py     Ryd( 5p)     0.00009       1.75127
   151    C    4  py     Ryd( 3p)     0.00005       0.94965
   152    C    4  pz     Val( 2p)     1.04158      -0.12619
   153    C    4  pz     Ryd( 4p)     0.00158       1.10667
   154    C    4  pz     Ryd( 5p)     0.00005       1.26918
   155    C    4  pz     Ryd( 3p)     0.00003       0.43277
   156    C    4  dxy    Ryd( 3d)     0.00300       1.88604
   157    C    4  dxy    Ryd( 5d)     0.00019       3.54936
   158    C    4  dxy    Ryd( 4d)     0.00008       2.75336
   159    C    4  dxz    Ryd( 3d)     0.00083       1.36941
   160    C    4  dxz    Ryd( 5d)     0.00008       2.93905
   161    C    4  dxz    Ryd( 4d)     0.00005       1.43776
   162    C    4  dyz    Ryd( 3d)     0.00098       1.35634
   163    C    4  dyz    Ryd( 5d)     0.00008       2.98660
   164    C    4  dyz    Ryd( 4d)     0.00001       1.55573
   165    C    4  dx2y2  Ryd( 4d)     0.00104       2.83890
   166    C    4  dx2y2  Ryd( 5d)     0.00043       3.87556
   167    C    4  dx2y2  Ryd( 3d)     0.00003       1.64837
   168    C    4  dz2    Ryd( 3d)     0.00138       2.27372
   169    C    4  dz2    Ryd( 5d)     0.00008       4.02659
   170    C    4  dz2    Ryd( 4d)     0.00007       3.13422
   171    C    4  f(0)   Ryd( 5f)     0.00015       3.52704
   172    C    4  f(0)   Ryd( 4f)     0.00006       2.07967
   173    C    4  f(C1)  Ryd( 5f)     0.00025       3.66225
   174    C    4  f(C1)  Ryd( 4f)     0.00003       2.69632
   175    C    4  f(S1)  Ryd( 5f)     0.00012       3.73718
   176    C    4  f(S1)  Ryd( 4f)     0.00004       2.83833
   177    C    4  f(C2)  Ryd( 5f)     0.00001       3.65922
   178    C    4  f(C2)  Ryd( 4f)     0.00003       2.11271
   179    C    4  f(S2)  Ryd( 5f)     0.00001       3.68768
   180    C    4  f(S2)  Ryd( 4f)     0.00003       2.21333
   181    C    4  f(C3)  Ryd( 5f)     0.00015       4.53147
   182    C    4  f(C3)  Ryd( 4f)     0.00007       4.24965
   183    C    4  f(S3)  Ryd( 4f)     0.00009       4.53892
   184    C    4  f(S3)  Ryd( 5f)     0.00007       4.71324
 
   185    C    5  S      Cor( 1S)     1.99905     -10.36942
   186    C    5  S      Val( 2S)     0.96451      -0.18889
   187    C    5  S      Ryd( 4S)     0.00116       1.93348
   188    C    5  S      Ryd( 3S)     0.00009       1.25652
   189    C    5  S      Ryd( 5S)     0.00005       3.78663
   190    C    5  px     Val( 2p)     1.07852      -0.08207
   191    C    5  px     Ryd( 4p)     0.00318       1.79658
   192    C    5  px     Ryd( 5p)     0.00013       2.28728
   193    C    5  px     Ryd( 3p)     0.00005       0.63775
   194    C    5  py     Val( 2p)     1.13297      -0.06670
   195    C    5  py     Ryd( 4p)     0.00312       1.91770
   196    C    5  py     Ryd( 5p)     0.00007       2.31816
   197    C    5  py     Ryd( 3p)     0.00004       0.67557
   198    C    5  pz     Val( 2p)     1.04729      -0.12869
   199    C    5  pz     Ryd( 4p)     0.00095       1.15485
   200    C    5  pz     Ryd( 5p)     0.00013       1.61652
   201    C    5  pz     Ryd( 3p)     0.00002       0.43628
   202    C    5  dxy    Ryd( 4d)     0.00112       2.62896
   203    C    5  dxy    Ryd( 5d)     0.00020       3.71397
   204    C    5  dxy    Ryd( 3d)     0.00006       2.47044
   205    C    5  dxz    Ryd( 3d)     0.00126       1.49485
   206    C    5  dxz    Ryd( 5d)     0.00005       3.01723
   207    C    5  dxz    Ryd( 4d)     0.00007       1.72314
   208    C    5  dyz    Ryd( 4d)     0.00071       1.49076
   209    C    5  dyz    Ryd( 5d)     0.00003       3.10178
   210    C    5  dyz    Ryd( 3d)     0.00004       1.33682
   211    C    5  dx2y2  Ryd( 4d)     0.00151       3.16832
   212    C    5  dx2y2  Ryd( 5d)     0.00038       3.92429
   213    C    5  dx2y2  Ryd( 3d)     0.00005       2.24697
   214    C    5  dz2    Ryd( 3d)     0.00138       2.00556
   215    C    5  dz2    Ryd( 4d)     0.00008       3.61515
   216    C    5  dz2    Ryd( 5d)     0.00013       3.61866
   217    C    5  f(0)   Ryd( 5f)     0.00020       3.61486
   218    C    5  f(0)   Ryd( 4f)     0.00002       2.03791
   219    C    5  f(C1)  Ryd( 5f)     0.00022       3.81173
   220    C    5  f(C1)  Ryd( 4f)     0.00004       2.99794
   221    C    5  f(S1)  Ryd( 5f)     0.00027       3.82483
   222    C    5  f(S1)  Ryd( 4f)     0.00002       2.80390
   223    C    5  f(C2)  Ryd( 5f)     0.00001       3.72033
   224    C    5  f(C2)  Ryd( 4f)     0.00001       2.10476
   225    C    5  f(S2)  Ryd( 5f)     0.00002       3.69459
   226    C    5  f(S2)  Ryd( 4f)     0.00002       2.06774
   227    C    5  f(C3)  Ryd( 5f)     0.00017       4.50529
   228    C    5  f(C3)  Ryd( 4f)     0.00007       4.22259
   229    C    5  f(S3)  Ryd( 5f)     0.00004       4.70604
   230    C    5  f(S3)  Ryd( 4f)     0.00013       4.66815
 
   231    C    6  S      Cor( 1S)     1.99876     -10.40101
   232    C    6  S      Val( 2S)     0.83404      -0.06656
   233    C    6  S      Ryd( 4S)     0.00131       1.98006
   234    C    6  S      Ryd( 5S)     0.00009       2.54786
   235    C    6  S      Ryd( 3S)     0.00003       1.83347
   236    C    6  px     Val( 2p)     1.05546      -0.09188
   237    C    6  px     Ryd( 5p)     0.00409       2.52238
   238    C    6  px     Ryd( 4p)     0.00018       2.15322
   239    C    6  px     Ryd( 3p)     0.00009       0.81356
   240    C    6  py     Val( 2p)     1.03676      -0.09792
   241    C    6  py     Ryd( 4p)     0.00515       1.94235
   242    C    6  py     Ryd( 5p)     0.00012       2.34642
   243    C    6  py     Ryd( 3p)     0.00009       0.90354
   244    C    6  pz     Val( 2p)     1.11552      -0.14883
   245    C    6  pz     Ryd( 4p)     0.00250       1.02648
   246    C    6  pz     Ryd( 5p)     0.00020       1.54493
   247    C    6  pz     Ryd( 3p)     0.00007       0.49024
   248    C    6  dxy    Ryd( 3d)     0.00047       2.45724
   249    C    6  dxy    Ryd( 4d)     0.00079       4.00225
   250    C    6  dxy    Ryd( 5d)     0.00008       5.89553
   251    C    6  dxz    Ryd( 3d)     0.00015       1.34643
   252    C    6  dxz    Ryd( 5d)     0.00039       3.14043
   253    C    6  dxz    Ryd( 4d)     0.00007       2.58743
   254    C    6  dyz    Ryd( 3d)     0.00108       1.11786
   255    C    6  dyz    Ryd( 5d)     0.00017       3.04538
   256    C    6  dyz    Ryd( 4d)     0.00010       2.65644
   257    C    6  dx2y2  Ryd( 3d)     0.00124       2.45733
   258    C    6  dx2y2  Ryd( 4d)     0.00031       3.88838
   259    C    6  dx2y2  Ryd( 5d)     0.00003       4.89616
   260    C    6  dz2    Ryd( 3d)     0.00142       1.43126
   261    C    6  dz2    Ryd( 4d)     0.00039       4.09935
   262    C    6  dz2    Ryd( 5d)     0.00009       5.22006
   263    C    6  f(0)   Ryd( 4f)     0.00044       1.52272
   264    C    6  f(0)   Ryd( 5f)     0.00037       3.47234
   265    C    6  f(C1)  Ryd( 4f)     0.00072       2.05508
   266    C    6  f(C1)  Ryd( 5f)     0.00047       3.79897
   267    C    6  f(S1)  Ryd( 4f)     0.00065       1.77596
   268    C    6  f(S1)  Ryd( 5f)     0.00025       3.61322
   269    C    6  f(C2)  Ryd( 4f)     0.00102       1.59352
   270    C    6  f(C2)  Ryd( 5f)     0.00007       3.50176
   271    C    6  f(S2)  Ryd( 4f)     0.00087       1.41014
   272    C    6  f(S2)  Ryd( 5f)     0.00004       3.51336
   273    C    6  f(C3)  Ryd( 4f)     0.00171       2.53493
   274    C    6  f(C3)  Ryd( 5f)     0.00014       4.32986
   275    C    6  f(S3)  Ryd( 4f)     0.00129       2.72382
   276    C    6  f(S3)  Ryd( 5f)     0.00017       4.37564
 
   277    C    7  S      Cor( 1S)     1.99909     -10.55204
   278    C    7  S      Val( 2S)     0.77763      -0.11709
   279    C    7  S      Ryd( 4S)     0.00426       1.91681
   280    C    7  S      Ryd( 3S)     0.00016       1.54797
   281    C    7  S      Ryd( 5S)     0.00010       2.20600
   282    C    7  px     Val( 2p)     0.89773      -0.05487
   283    C    7  px     Ryd( 5p)     0.00488       1.63734
   284    C    7  px     Ryd( 3p)     0.00027       1.03439
   285    C    7  px     Ryd( 4p)     0.00002       1.46559
   286    C    7  py     Val( 2p)     0.74342      -0.02828
   287    C    7  py     Ryd( 4p)     0.01270       1.61941
   288    C    7  py     Ryd( 3p)     0.00008       1.05813
   289    C    7  py     Ryd( 5p)     0.00008       2.13524
   290    C    7  pz     Val( 2p)     0.76530      -0.13351
   291    C    7  pz     Ryd( 5p)     0.00047       1.17012
   292    C    7  pz     Ryd( 3p)     0.00018       0.64882
   293    C    7  pz     Ryd( 4p)     0.00003       1.09965
   294    C    7  dxy    Ryd( 5d)     0.00103       4.21507
   295    C    7  dxy    Ryd( 3d)     0.00006       2.55270
   296    C    7  dxy    Ryd( 4d)     0.00006       4.04064
   297    C    7  dxz    Ryd( 5d)     0.00065       3.28310
   298    C    7  dxz    Ryd( 3d)     0.00008       1.43701
   299    C    7  dxz    Ryd( 4d)     0.00010       2.31246
   300    C    7  dyz    Ryd( 5d)     0.00133       3.38013
   301    C    7  dyz    Ryd( 3d)     0.00007       1.61396
   302    C    7  dyz    Ryd( 4d)     0.00002       2.44245
   303    C    7  dx2y2  Ryd( 5d)     0.00138       4.21904
   304    C    7  dx2y2  Ryd( 3d)     0.00006       2.77329
   305    C    7  dx2y2  Ryd( 4d)     0.00003       3.42461
   306    C    7  dz2    Ryd( 5d)     0.00020       4.50106
   307    C    7  dz2    Ryd( 3d)     0.00018       2.87086
   308    C    7  dz2    Ryd( 4d)     0.00011       3.38307
   309    C    7  f(0)   Ryd( 5f)     0.00013       3.44291
   310    C    7  f(0)   Ryd( 4f)     0.00004       2.51371
   311    C    7  f(C1)  Ryd( 5f)     0.00015       3.69556
   312    C    7  f(C1)  Ryd( 4f)     0.00003       3.27707
   313    C    7  f(S1)  Ryd( 5f)     0.00006       3.58942
   314    C    7  f(S1)  Ryd( 4f)     0.00005       3.42244
   315    C    7  f(C2)  Ryd( 5f)     0.00001       3.42995
   316    C    7  f(C2)  Ryd( 4f)     0.00011       2.71402
   317    C    7  f(S2)  Ryd( 5f)     0.00002       3.58799
   318    C    7  f(S2)  Ryd( 4f)     0.00001       2.94447
   319    C    7  f(C3)  Ryd( 4f)     0.00012       4.52639
   320    C    7  f(C3)  Ryd( 5f)     0.00001       7.76695
   321    C    7  f(S3)  Ryd( 4f)     0.00009       4.55871
   322    C    7  f(S3)  Ryd( 5f)     0.00003       5.07499
 
   323    O    8  S      Cor( 1S)     1.99979     -19.33590
   324    O    8  S      Val( 2S)     1.70849      -1.00743
   325    O    8  S      Ryd( 4S)     0.00051       3.26149
   326    O    8  S      Ryd( 3S)     0.00016       1.48047
   327    O    8  S      Ryd( 5S)     0.00002       8.86406
   328    O    8  px     Val( 2p)     1.81648      -0.34746
   329    O    8  px     Ryd( 4p)     0.00138       1.20657
   330    O    8  px     Ryd( 3p)     0.00011       0.62528
   331    O    8  px     Ryd( 5p)     0.00003       4.75642
   332    O    8  py     Val( 2p)     1.58936      -0.34049
   333    O    8  py     Ryd( 4p)     0.00127       1.38077
   334    O    8  py     Ryd( 3p)     0.00014       0.60068
   335    O    8  py     Ryd( 5p)     0.00006       5.59939
   336    O    8  pz     Val( 2p)     1.47076      -0.29843
   337    O    8  pz     Ryd( 4p)     0.00093       0.89726
   338    O    8  pz     Ryd( 3p)     0.00002       0.47101
   339    O    8  pz     Ryd( 5p)     0.00000       4.20700
   340    O    8  dxy    Ryd( 3d)     0.00718       1.99634
   341    O    8  dxy    Ryd( 4d)     0.00009       2.92060
   342    O    8  dxy    Ryd( 5d)     0.00004       6.66838
   343    O    8  dxz    Ryd( 3d)     0.00143       1.36284
   344    O    8  dxz    Ryd( 4d)     0.00005       1.74900
   345    O    8  dxz    Ryd( 5d)     0.00001       6.51550
   346    O    8  dyz    Ryd( 3d)     0.00566       1.51625
   347    O    8  dyz    Ryd( 4d)     0.00004       1.75136
   348    O    8  dyz    Ryd( 5d)     0.00002       6.50741
   349    O    8  dx2y2  Ryd( 3d)     0.00702       1.86781
   350    O    8  dx2y2  Ryd( 4d)     0.00007       2.36114
   351    O    8  dx2y2  Ryd( 5d)     0.00004       6.59728
   352    O    8  dz2    Ryd( 3d)     0.00297       1.58004
   353    O    8  dz2    Ryd( 4d)     0.00008       2.37039
   354    O    8  dz2    Ryd( 5d)     0.00000       6.58427
   355    O    8  f(0)   Ryd( 4f)     0.00013       3.04049
   356    O    8  f(0)   Ryd( 5f)     0.00000       5.62649
   357    O    8  f(C1)  Ryd( 4f)     0.00006       3.16422
   358    O    8  f(C1)  Ryd( 5f)     0.00001       5.68329
   359    O    8  f(S1)  Ryd( 4f)     0.00013       3.52673
   360    O    8  f(S1)  Ryd( 5f)     0.00001       5.87530
   361    O    8  f(C2)  Ryd( 4f)     0.00020       3.05342
   362    O    8  f(C2)  Ryd( 5f)     0.00003       5.78528
   363    O    8  f(S2)  Ryd( 4f)     0.00020       3.03799
   364    O    8  f(S2)  Ryd( 5f)     0.00001       5.75841
   365    O    8  f(C3)  Ryd( 4f)     0.00042       3.85997
   366    O    8  f(C3)  Ryd( 5f)     0.00001       6.14675
   367    O    8  f(S3)  Ryd( 4f)     0.00040       3.59149
   368    O    8  f(S3)  Ryd( 5f)     0.00003       6.06922
 
   369    O    9  S      Cor( 1S)     1.99978     -19.46715
   370    O    9  S      Val( 2S)     1.67377      -1.03525
   371    O    9  S      Ryd( 3S)     0.00039       1.34814
   372    O    9  S      Ryd( 4S)     0.00015       2.07051
   373    O    9  S      Ryd( 5S)     0.00001      10.22501
   374    O    9  px     Val( 2p)     1.44329      -0.35955
   375    O    9  px     Ryd( 4p)     0.00077       1.16612
   376    O    9  px     Ryd( 3p)     0.00008       0.56371
   377    O    9  px     Ryd( 5p)     0.00004       5.29530
   378    O    9  py     Val( 2p)     1.71138      -0.40796
   379    O    9  py     Ryd( 4p)     0.00083       0.98219
   380    O    9  py     Ryd( 3p)     0.00011       0.53856
   381    O    9  py     Ryd( 5p)     0.00008       4.96355
   382    O    9  pz     Val( 2p)     1.84983      -0.41682
   383    O    9  pz     Ryd( 4p)     0.00138       0.75691
   384    O    9  pz     Ryd( 3p)     0.00003       0.50103
   385    O    9  pz     Ryd( 5p)     0.00001       4.13848
   386    O    9  dxy    Ryd( 3d)     0.00681       1.99636
   387    O    9  dxy    Ryd( 4d)     0.00017       2.54194
   388    O    9  dxy    Ryd( 5d)     0.00003       6.85116
   389    O    9  dxz    Ryd( 3d)     0.00036       1.17534
   390    O    9  dxz    Ryd( 4d)     0.00008       1.88937
   391    O    9  dxz    Ryd( 5d)     0.00002       6.52403
   392    O    9  dyz    Ryd( 3d)     0.00500       1.25426
   393    O    9  dyz    Ryd( 4d)     0.00001       1.68579
   394    O    9  dyz    Ryd( 5d)     0.00004       6.50845
   395    O    9  dx2y2  Ryd( 3d)     0.00324       1.70199
   396    O    9  dx2y2  Ryd( 4d)     0.00010       2.08066
   397    O    9  dx2y2  Ryd( 5d)     0.00006       6.85461
   398    O    9  dz2    Ryd( 3d)     0.00316       1.45090
   399    O    9  dz2    Ryd( 4d)     0.00014       2.31530
   400    O    9  dz2    Ryd( 5d)     0.00001       6.74020
   401    O    9  f(0)   Ryd( 4f)     0.00055       2.73767
   402    O    9  f(0)   Ryd( 5f)     0.00001       5.93824
   403    O    9  f(C1)  Ryd( 4f)     0.00027       3.46212
   404    O    9  f(C1)  Ryd( 5f)     0.00001       6.22056
   405    O    9  f(S1)  Ryd( 4f)     0.00013       3.15630
   406    O    9  f(S1)  Ryd( 5f)     0.00001       6.08690
   407    O    9  f(C2)  Ryd( 4f)     0.00009       2.78711
   408    O    9  f(C2)  Ryd( 5f)     0.00001       6.11816
   409    O    9  f(S2)  Ryd( 4f)     0.00008       2.84563
   410    O    9  f(S2)  Ryd( 5f)     0.00001       5.96240
   411    O    9  f(C3)  Ryd( 4f)     0.00005       4.10480
   412    O    9  f(C3)  Ryd( 5f)     0.00004       6.51067
   413    O    9  f(S3)  Ryd( 4f)     0.00014       3.99638
   414    O    9  f(S3)  Ryd( 5f)     0.00003       6.47538
 
   415    H   10  S      Val( 1S)     0.77494       0.01540
   416    H   10  S      Ryd( 4S)     0.00024       1.86687
   417    H   10  S      Ryd( 2S)     0.00009       0.39765
   418    H   10  S      Ryd( 3S)     0.00002       1.40253
   419    H   10  px     Ryd( 2p)     0.00031       1.02258
   420    H   10  px     Ryd( 4p)     0.00009       3.89089
   421    H   10  px     Ryd( 3p)     0.00003       2.29445
   422    H   10  py     Ryd( 2p)     0.00030       0.98607
   423    H   10  py     Ryd( 4p)     0.00003       3.92813
   424    H   10  py     Ryd( 3p)     0.00003       2.13421
   425    H   10  pz     Ryd( 2p)     0.00066       1.04786
   426    H   10  pz     Ryd( 4p)     0.00010       3.99035
   427    H   10  pz     Ryd( 3p)     0.00002       3.33894
   428    H   10  dxy    Ryd( 3d)     0.00003       2.44445
   429    H   10  dxy    Ryd( 4d)     0.00001       3.19892
   430    H   10  dxz    Ryd( 3d)     0.00007       2.46867
   431    H   10  dxz    Ryd( 4d)     0.00001       3.78194
   432    H   10  dyz    Ryd( 3d)     0.00005       2.36901
   433    H   10  dyz    Ryd( 4d)     0.00001       3.53359
   434    H   10  dx2y2  Ryd( 3d)     0.00003       2.37238
   435    H   10  dx2y2  Ryd( 4d)     0.00001       3.17237
   436    H   10  dz2    Ryd( 3d)     0.00004       2.44749
   437    H   10  dz2    Ryd( 4d)     0.00002       3.73829
 
   438    H   11  S      Val( 1S)     0.77496       0.01540
   439    H   11  S      Ryd( 4S)     0.00024       1.86698
   440    H   11  S      Ryd( 2S)     0.00009       0.39754
   441    H   11  S      Ryd( 3S)     0.00002       1.40264
   442    H   11  px     Ryd( 2p)     0.00031       1.02230
   443    H   11  px     Ryd( 4p)     0.00009       3.89067
   444    H   11  px     Ryd( 3p)     0.00003       2.29271
   445    H   11  py     Ryd( 2p)     0.00030       0.98618
   446    H   11  py     Ryd( 4p)     0.00003       3.92824
   447    H   11  py     Ryd( 3p)     0.00003       2.13434
   448    H   11  pz     Ryd( 2p)     0.00066       1.04819
   449    H   11  pz     Ryd( 4p)     0.00010       3.99093
   450    H   11  pz     Ryd( 3p)     0.00002       3.33938
   451    H   11  dxy    Ryd( 3d)     0.00003       2.44468
   452    H   11  dxy    Ryd( 4d)     0.00001       3.19796
   453    H   11  dxz    Ryd( 3d)     0.00007       2.46849
   454    H   11  dxz    Ryd( 4d)     0.00001       3.78088
   455    H   11  dyz    Ryd( 3d)     0.00005       2.36928
   456    H   11  dyz    Ryd( 4d)     0.00001       3.53417
   457    H   11  dx2y2  Ryd( 3d)     0.00003       2.37235
   458    H   11  dx2y2  Ryd( 4d)     0.00001       3.17133
   459    H   11  dz2    Ryd( 3d)     0.00004       2.44803
   460    H   11  dz2    Ryd( 4d)     0.00002       3.73880
 
   461    H   12  S      Val( 1S)     0.77729       0.01668
   462    H   12  S      Ryd( 4S)     0.00036       1.87878
   463    H   12  S      Ryd( 2S)     0.00007       0.40035
   464    H   12  S      Ryd( 3S)     0.00003       1.53603
   465    H   12  px     Ryd( 2p)     0.00141       1.03947
   466    H   12  px     Ryd( 4p)     0.00013       3.95599
   467    H   12  px     Ryd( 3p)     0.00002       3.72772
   468    H   12  py     Ryd( 2p)     0.00043       0.84000
   469    H   12  py     Ryd( 4p)     0.00006       4.04409
   470    H   12  py     Ryd( 3p)     0.00002       2.24138
   471    H   12  pz     Ryd( 2p)     0.00018       0.65131
   472    H   12  pz     Ryd( 4p)     0.00003       3.84307
   473    H   12  pz     Ryd( 3p)     0.00002       1.88194
   474    H   12  dxy    Ryd( 3d)     0.00008       2.33731
   475    H   12  dxy    Ryd( 4d)     0.00002       4.14319
   476    H   12  dxz    Ryd( 3d)     0.00001       2.08653
   477    H   12  dxz    Ryd( 4d)     0.00002       3.71596
   478    H   12  dyz    Ryd( 3d)     0.00001       1.96835
   479    H   12  dyz    Ryd( 4d)     0.00001       3.20698
   480    H   12  dx2y2  Ryd( 3d)     0.00004       2.37325
   481    H   12  dx2y2  Ryd( 4d)     0.00002       4.00835
   482    H   12  dz2    Ryd( 3d)     0.00008       2.08377
   483    H   12  dz2    Ryd( 4d)     0.00001       3.47533
 
   484    H   13  S      Val( 1S)     0.79283       0.02729
   485    H   13  S      Ryd( 4S)     0.00028       1.88445
   486    H   13  S      Ryd( 2S)     0.00009       0.77052
   487    H   13  S      Ryd( 3S)     0.00003       1.15017
   488    H   13  px     Ryd( 2p)     0.00081       0.80829
   489    H   13  px     Ryd( 4p)     0.00010       4.35950
   490    H   13  px     Ryd( 3p)     0.00002       3.07773
   491    H   13  py     Ryd( 2p)     0.00044       0.85230
   492    H   13  py     Ryd( 4p)     0.00012       4.37533
   493    H   13  py     Ryd( 3p)     0.00002       2.90743
   494    H   13  pz     Ryd( 2p)     0.00072       0.65546
   495    H   13  pz     Ryd( 4p)     0.00006       3.81656
   496    H   13  pz     Ryd( 3p)     0.00002       1.85384
   497    H   13  dxy    Ryd( 3d)     0.00016       1.92739
   498    H   13  dxy    Ryd( 4d)     0.00001       4.23889
   499    H   13  dxz    Ryd( 3d)     0.00004       1.63780
   500    H   13  dxz    Ryd( 4d)     0.00000       3.65824
   501    H   13  dyz    Ryd( 3d)     0.00004       1.66327
   502    H   13  dyz    Ryd( 4d)     0.00002       3.64672
   503    H   13  dx2y2  Ryd( 3d)     0.00003       1.95809
   504    H   13  dx2y2  Ryd( 4d)     0.00001       4.31333
   505    H   13  dz2    Ryd( 3d)     0.00005       1.81381
   506    H   13  dz2    Ryd( 4d)     0.00004       3.76216
 
   507    H   14  S      Val( 1S)     0.76259       0.04944
   508    H   14  S      Ryd( 4S)     0.00029       1.79170
   509    H   14  S      Ryd( 2S)     0.00012       0.94931
   510    H   14  S      Ryd( 3S)     0.00004       1.19329
   511    H   14  px     Ryd( 2p)     0.00070       0.97215
   512    H   14  px     Ryd( 4p)     0.00009       3.78376
   513    H   14  px     Ryd( 3p)     0.00009       3.23098
   514    H   14  py     Ryd( 2p)     0.00098       0.89729
   515    H   14  py     Ryd( 4p)     0.00015       4.80554
   516    H   14  py     Ryd( 3p)     0.00007       3.52657
   517    H   14  pz     Ryd( 2p)     0.00061       0.55326
   518    H   14  pz     Ryd( 4p)     0.00008       3.12153
   519    H   14  pz     Ryd( 3p)     0.00004       2.74878
   520    H   14  dxy    Ryd( 3d)     0.00010       2.00452
   521    H   14  dxy    Ryd( 4d)     0.00002       4.35585
   522    H   14  dxz    Ryd( 3d)     0.00011       1.48484
   523    H   14  dxz    Ryd( 4d)     0.00001       3.60732
   524    H   14  dyz    Ryd( 3d)     0.00003       1.59547
   525    H   14  dyz    Ryd( 4d)     0.00001       3.93385
   526    H   14  dx2y2  Ryd( 3d)     0.00009       1.98632
   527    H   14  dx2y2  Ryd( 4d)     0.00003       4.31644
   528    H   14  dz2    Ryd( 3d)     0.00005       1.88599
   529    H   14  dz2    Ryd( 4d)     0.00003       3.86055
 
   530    H   15  S      Val( 1S)     0.49106       0.13045
   531    H   15  S      Ryd( 4S)     0.00089       1.87776
   532    H   15  S      Ryd( 3S)     0.00019       1.37051
   533    H   15  S      Ryd( 2S)     0.00010       0.59242
   534    H   15  px     Ryd( 2p)     0.00041       1.97190
   535    H   15  px     Ryd( 4p)     0.00033       4.36260
   536    H   15  px     Ryd( 3p)     0.00001       3.13080
   537    H   15  py     Ryd( 2p)     0.00030       1.48778
   538    H   15  py     Ryd( 4p)     0.00007       3.67036
   539    H   15  py     Ryd( 3p)     0.00001       2.69928
   540    H   15  pz     Ryd( 2p)     0.00069       1.17907
   541    H   15  pz     Ryd( 4p)     0.00004       3.39478
   542    H   15  pz     Ryd( 3p)     0.00001       2.41416
   543    H   15  dxy    Ryd( 3d)     0.00006       1.50861
   544    H   15  dxy    Ryd( 4d)     0.00000       4.40334
   545    H   15  dxz    Ryd( 3d)     0.00015       1.15166
   546    H   15  dxz    Ryd( 4d)     0.00000       4.19970
   547    H   15  dyz    Ryd( 3d)     0.00003       1.13973
   548    H   15  dyz    Ryd( 4d)     0.00000       3.79977
   549    H   15  dx2y2  Ryd( 3d)     0.00009       1.64930
   550    H   15  dx2y2  Ryd( 4d)     0.00001       4.52343
   551    H   15  dz2    Ryd( 3d)     0.00010       1.63215
   552    H   15  dz2    Ryd( 4d)     0.00000       4.00753

 WARNING:  1 low occupancy (<1.9990e) core orbital  found on  C    6

 WARNING:  Population inversion found on atom  C    1
           Population inversion found on atom  N    2
           Population inversion found on atom  N    3
           Population inversion found on atom  C    4
           Population inversion found on atom  C    5
           Population inversion found on atom  C    6
           Population inversion found on atom  C    7
           Population inversion found on atom  O    8
           Population inversion found on atom  O    9
           Population inversion found on atom  H   10
           Population inversion found on atom  H   11
           Population inversion found on atom  H   12
           Population inversion found on atom  H   13
           Population inversion found on atom  H   14
           Population inversion found on atom  H   15


 Summary of Natural Population Analysis:                  
                                                          
                                       Natural Population 
                Natural  -----------------------------------------------
    Atom  No    Charge         Core      Valence    Rydberg      Total
 -----------------------------------------------------------------------
      C    1   -0.38564      1.99942     4.37273    0.01349     6.38564
      N    2   -0.09194      1.99924     5.05697    0.03573     7.09194
      N    3   -0.21724      1.99937     5.18008    0.03779     7.21724
      C    4   -0.07334      1.99919     4.04712    0.02702     6.07334
      C    5   -0.23963      1.99905     4.22329    0.01729     6.23963
      C    6   -0.06944      1.99876     4.04178    0.02890     6.06944
      C    7    0.78736      1.99909     3.18407    0.02947     5.21264
      O    8   -0.61591      1.99979     6.58510    0.03102     8.61591
      O    9   -0.70262      1.99978     6.67827    0.02457     8.70262
      H   10    0.22283      0.00000     0.77494    0.00223     0.77717
      H   11    0.22281      0.00000     0.77496    0.00223     0.77719
      H   12    0.21964      0.00000     0.77729    0.00307     0.78036
      H   13    0.20403      0.00000     0.79283    0.00313     0.79597
      H   14    0.23366      0.00000     0.76259    0.00374     0.76634
      H   15    0.50542      0.00000     0.49106    0.00352     0.49458
 =======================================================================
   * Total *    0.00000     17.99370    47.74309    0.26321    66.00000

                                 Natural Population      
 --------------------------------------------------------
   Core                      17.99370 ( 99.9650% of  18)
   Valence                   47.74309 ( 99.4648% of  48)
   Natural Minimal Basis     65.73679 ( 99.6012% of  66)
   Natural Rydberg Basis      0.26321 (  0.3988% of  66)
 --------------------------------------------------------

    Atom  No          Natural Electron Configuration
 ----------------------------------------------------------------------------
      C    1      [core]2S( 1.10)2p( 3.27)4d( 0.01)
      N    2      [core]2S( 1.12)2p( 3.94)3d( 0.01)4p( 0.01)4f( 0.01)
      N    3      [core]2S( 1.33)2p( 3.85)3d( 0.02)4p( 0.01)
      C    4      [core]2S( 0.92)2p( 3.13)3d( 0.01)4p( 0.01)5p( 0.01)
      C    5      [core]2S( 0.96)2p( 3.26)4p( 0.01)
      C    6      [core]2S( 0.83)2p( 3.21)4p( 0.01)4f( 0.01)
      C    7      [core]2S( 0.78)2p( 2.41)4p( 0.01)5p( 0.01)
      O    8      [core]2S( 1.71)2p( 4.88)3d( 0.02)
      O    9      [core]2S( 1.67)2p( 5.00)3d( 0.02)
      H   10            1S( 0.77)
      H   11            1S( 0.77)
      H   12            1S( 0.78)
      H   13            1S( 0.79)
      H   14            1S( 0.76)
      H   15            1S( 0.49)


 NATURAL BOND ORBITAL ANALYSIS:

                       Occupancies       Lewis Structure    Low   High
           Occ.    -------------------  -----------------   occ   occ
  Cycle   Thresh.   Lewis   Non-Lewis     CR  BD  3C  LP    (L)   (NL)   Dev
 =============================================================================
   1(1)    1.90    62.79888   3.20112      9  17   0   7     8      4    0.45
   2(2)    1.90    62.79888   3.20112      9  17   0   7     8      4    0.45
   3(1)    1.80    64.06404   1.93596      9  18   0   6     1      3    0.42
   4(2)    1.80    64.06404   1.93596      9  18   0   6     1      3    0.42
   5(1)    1.70    64.35724   1.64276      9  18   0   6     1      3    0.42
   6(2)    1.70    64.08102   1.91898      9  18   0   6     1      3    0.45
   7(3)    1.70    64.35724   1.64276      9  18   0   6     1      3    0.42
   8(1)    1.60    64.35724   1.64276      9  18   0   6     1      3    0.42
   9(2)    1.60    64.08102   1.91898      9  18   0   6     1      3    0.45
  10(3)    1.60    64.35724   1.64276      9  18   0   6     1      3    0.42
  11(1)    1.50    63.29037   2.70963      9  18   0   6     1      5    0.73
  12(2)    1.50    63.29037   2.70963      9  18   0   6     1      5    0.73
  13(1)    1.70    64.35724   1.64276      9  18   0   6     1      3    0.42
 -----------------------------------------------------------------------------

 Structure accepted: RESONANCE keyword permits strongly delocalized structure

 WARNING:  1 low occupancy (<1.9990e) core orbital  found on  C    6

 --------------------------------------------------------
   Core                     17.99372 ( 99.965% of  18)
   Valence Lewis            46.36353 ( 96.591% of  48)
  ==================       ============================
   Total Lewis              64.35724 ( 97.511% of  66)
  -----------------------------------------------------
   Valence non-Lewis         1.50904 (  2.286% of  66)
   Rydberg non-Lewis         0.13372 (  0.203% of  66)
  ==================       ============================
   Total non-Lewis           1.64276 (  2.489% of  66)
 --------------------------------------------------------


       (Occupancy)   Bond orbital/ Coefficients/ Hybrids
 ---------------------------------------------------------------------------------
     1. (1.98656) BD ( 1) C   1 - N   2  
                ( 35.29%)   0.5941* C   1 s( 24.07%)p 3.15( 75.79%)d 0.01(  0.13%)
                                                  f 0.00(  0.01%)
                                            0.0001  0.4901 -0.0214  0.0025 -0.0020
                                            0.0876  0.0115  0.0016  0.0001 -0.8655
                                           -0.0323  0.0066  0.0018  0.0001  0.0000
                                            0.0000  0.0000 -0.0057 -0.0014 -0.0001
                                            0.0000  0.0000  0.0000  0.0000  0.0000
                                            0.0000 -0.0299 -0.0082 -0.0026 -0.0164
                                           -0.0061 -0.0019  0.0000  0.0000 -0.0034
                                           -0.0006  0.0017 -0.0067  0.0000  0.0000
                                            0.0000  0.0000  0.0011  0.0042  0.0011
                                           -0.0044
                ( 64.71%)   0.8044* N   2 s( 30.03%)p 2.33( 69.87%)d 0.00(  0.02%)
                                                  f 0.00(  0.08%)
                                           -0.0001  0.5480  0.0034 -0.0010  0.0006
                                           -0.0502 -0.0121  0.0023  0.0000  0.8341
                                            0.0186 -0.0035 -0.0024 -0.0001  0.0000
                                            0.0000  0.0000 -0.0071  0.0012 -0.0010
                                            0.0000  0.0000  0.0000  0.0000  0.0000
                                            0.0000 -0.0087 -0.0061  0.0014 -0.0062
                                           -0.0017 -0.0004  0.0000  0.0000  0.0011
                                            0.0010 -0.0209 -0.0070  0.0000  0.0000
                                            0.0000  0.0000  0.0025  0.0005 -0.0160
                                           -0.0025
     2. (1.98773) BD ( 1) C   1 - H  10  
                ( 61.24%)   0.7825* C   1 s( 25.94%)p 2.85( 73.92%)d 0.01(  0.14%)
                                                  f 0.00(  0.01%)
                                           -0.0001  0.5093  0.0034 -0.0004  0.0001
                                           -0.4248  0.0022  0.0010 -0.0002  0.2446
                                            0.0099  0.0033 -0.0003 -0.7062  0.0086
                                           -0.0023 -0.0007 -0.0051  0.0005  0.0013
                                            0.0271 -0.0007  0.0000 -0.0123  0.0014
                                            0.0014  0.0014  0.0021  0.0001  0.0212
                                            0.0002 -0.0002  0.0001 -0.0015 -0.0064
                                           -0.0008  0.0040 -0.0012  0.0009 -0.0010
                                            0.0031 -0.0022  0.0012 -0.0005  0.0023
                                            0.0007
                ( 38.76%)   0.6226* H  10 s( 99.90%)p 0.00(  0.08%)d 0.00(  0.02%)
                                            0.9995  0.0007  0.0002  0.0000 -0.0078
                                            0.0062 -0.0007  0.0105 -0.0042 -0.0014
                                           -0.0231  0.0084 -0.0015  0.0032 -0.0010
                                           -0.0090  0.0006  0.0067 -0.0016 -0.0008
                                           -0.0011 -0.0059  0.0002
     3. (1.98773) BD ( 1) C   1 - H  11  
                ( 61.24%)   0.7825* C   1 s( 25.94%)p 2.85( 73.92%)d 0.01(  0.14%)
                                                  f 0.00(  0.01%)
                                           -0.0001  0.5093  0.0034 -0.0004  0.0001
                                           -0.4240  0.0022  0.0010 -0.0002  0.2448
                                            0.0099  0.0033 -0.0003  0.7066 -0.0086
                                            0.0023  0.0007 -0.0051  0.0005  0.0013
                                           -0.0271  0.0007  0.0000  0.0123 -0.0014
[...]
 ! D24   D(2,6,7,9)            179.9971         -DE/DX =    0.0                 !
 ! D25   D(5,6,7,8)            179.994          -DE/DX =    0.0                 !
 ! D26   D(5,6,7,9)             -0.0052         -DE/DX =    0.0                 !
 ! D27   D(6,7,9,15)           179.9988         -DE/DX =    0.0                 !
 ! D28   D(8,7,9,15)            -0.0005         -DE/DX =    0.0                 !
 --------------------------------------------------------------------------------
 GradGradGradGradGradGradGradGradGradGradGradGradGradGradGradGradGradGrad


 ----------------------------------------------------------------------

 Electric dipole moment (input orientation):
 (Debye = 10**-18 statcoulomb cm , SI units = C m)
                  (au)            (Debye)         (10**-30 SI)
   Tot        0.474431D+00      0.120588D+01      0.402239D+01
   x          0.936750D-02      0.238098D-01      0.794210D-01
   y         -0.439267D+00     -0.111651D+01     -0.372426D+01
   z          0.179000D+00      0.454974D+00      0.151763D+01

 Dipole polarizability, Alpha (input orientation).
 (esu units = cm**3 , SI units = C**2 m**2 J**-1)
 Alpha(0;0):
               (au)            (10**-24 esu)      (10**-40 SI)
   iso        0.803644D+02      0.119088D+02      0.132503D+02
   aniso      0.450784D+02      0.667994D+01      0.743243D+01
   xx         0.511449D+02      0.757889D+01      0.843265D+01
   yx         0.435195D-01      0.644892D-02      0.717540D-02
   yy         0.898015D+02      0.133072D+02      0.148063D+02
   zx         0.294688D+01      0.436683D+00      0.485875D+00
   zy        -0.125592D+01     -0.186108D+00     -0.207074D+00
   zz         0.100147D+03      0.148402D+02      0.165120D+02

 ----------------------------------------------------------------------

 Dipole orientation:
     6         -3.08395330          0.54275723         -3.57220164
     7         -3.19006423         -1.90465181         -2.33070380
     7         -3.28060130         -3.98978594         -3.70972078
     6         -3.36340125         -5.90095323         -2.07588191
     6         -3.32541345         -5.02898165          0.41315623
     6         -3.21277712         -2.43184088          0.17923660
     6         -3.12693557         -0.45721263          2.11205934
     8         -3.02971890          1.78037543          1.71286333
     8         -3.16939803         -1.43633621          4.45476542
     1         -4.70377951          1.68267731         -3.03108070
     1         -1.37126871          1.53797072         -3.03152092
     1         -3.10053527          0.16694592         -5.58676828
     1         -3.44636428         -7.81236759         -2.76659349
     1         -3.37113969         -6.08566425          2.14707729
     1         -3.10832932         -0.03223545          5.62075905

 Electric dipole moment (dipole orientation):
 (Debye = 10**-18 statcoulomb cm , SI units = C m)
                  (au)            (Debye)         (10**-30 SI)
   Tot        0.474431D+00      0.120588D+01      0.402239D+01
   x          0.000000D+00      0.000000D+00      0.000000D+00
   y          0.000000D+00      0.000000D+00      0.000000D+00
   z          0.474431D+00      0.120588D+01      0.402239D+01

 Dipole polarizability, Alpha (dipole orientation).
 (esu units = cm**3 , SI units = C**2 m**2 J**-1)
 Alpha(0;0):
               (au)            (10**-24 esu)      (10**-40 SI)
   iso        0.803644D+02      0.119088D+02      0.132503D+02
   aniso      0.450784D+02      0.667994D+01      0.743243D+01
   xx         0.510562D+02      0.756576D+01      0.841804D+01
   yx         0.203520D+01      0.301586D+00      0.335560D+00
   yy         0.978580D+02      0.145011D+02      0.161346D+02
   zx         0.200743D+00      0.297471D-01      0.330981D-01
   zy         0.456998D+01      0.677201D+00      0.753487D+00
   zz         0.921789D+02      0.136595D+02      0.151982D+02

 ----------------------------------------------------------------------
 Unable to Open any file for archive entry.
 1\1\GINC-AE24\Freq\RM062X\Aug-CC-pVTZ\C5H6N2O2\DHUANG\04-Mar-2025\0\\#
 N Geom=AllCheck Guess=TCheck SCRF=Check GenChk RM062X/Aug-CC-pVTZ Freq
 \\8\\0,1\C,-1.6650075707,1.8370059902,-0.4150616746\N,-1.725361895,0.7
 389749894,-1.3652031749\N,-1.8023129581,0.9973748519,-2.661210074\C,-1
 .8424692391,-0.1855780502,-3.2705270682\C,-1.7902413568,-1.2306053637,
 -2.3467449864\C,-1.7148555749,-0.5962802183,-1.1221407104\C,-1.6353783
 377,-1.1481332054,0.2303428577\O,-1.5724023404,-0.5047789211,1.2459448
 385\O,-1.6402417879,-2.4918887995,0.2187943366\H,-2.5082794398,1.78826
 55813,0.2684116779\H,-0.7463108498,1.7829754313,0.1626043266\H,-1.6974
 686874,2.7488491897,-1.0012396634\H,-1.9070015025,-0.2296541143,-4.344
 0737798\H,-1.8037370733,-2.2916027678,-2.5178074737\H,-1.5858895968,-2
 .7821979736,1.1389013881\\Version=ES64L-G16RevC.01\State=1-A\HF=-454.0
 92454\RMSD=2.489e-09\RMSF=5.892e-05\ZeroPoint=0.1157822\Thermal=0.1235
 448\ETot=-453.9689092\HTot=-453.9679651\GTot=-454.0093774\Dipole=0.009
 3675,-0.4392671,0.1790004\DipoleDeriv=0.1881967,0.0120096,0.0069532,0.
 0126669,0.4041162,0.2000923,0.0069272,0.1893065,0.2934816,-0.0501703,-
 0.0281667,-0.0094113,-0.03289,-0.1811076,-0.5415576,-0.0091709,-0.4632
 146,-0.1788037,-0.2275983,0.0291261,-0.0032452,0.009325,-0.3707202,0.1
 626948,-0.0022437,0.4929488,-0.2899249,-0.0883241,-0.0050391,0.0198942
 ,-0.0036219,-0.1289845,-0.0583201,0.0198253,-0.082019,0.2451617,-0.166
 5073,-0.0152553,0.0056874,-0.0001331,-0.0319347,-0.0091168,0.004906,-0
 .2611663,-0.0716505,-0.0067051,0.0260101,-0.0344912,0.031182,0.1192127
 ,0.5136163,-0.0347621,0.4274008,-0.6058628,0.3696861,-0.0076706,0.0970
 11,-0.0088121,1.9317261,-0.2280903,0.0970746,-0.2090637,1.9918099,-0.3
 633916,-0.011553,-0.0582218,-0.0105822,-0.7975412,-0.1536721,-0.058269
 8,-0.1697273,-1.321739,-0.3625733,0.010365,-0.0063902,0.0124754,-1.453
 1493,0.2643187,-0.0064973,0.2290538,-0.4823633,-0.0109384,-0.0068756,0
 .0645457,-0.0470316,0.016815,-0.0232198,0.0372748,-0.0730202,0.0104347
 ,-0.0224781,-0.0017025,-0.060723,0.0441369,0.0165001,-0.0283139,-0.033
 7353,-0.0731108,0.0222508,0.0955833,0.0045333,-0.0038001,-0.0008347,-0
 .0036171,-0.0089458,-0.0035313,0.080473,0.0329876,0.1522768,-0.00085,-
 0.0101553,0.0008404,0.0735274,0.0180334,-0.0102394,-0.0101622,-0.01729
 41,0.1651825,-0.0007588,-0.0032106,-0.0010154,0.0309503,-0.010104,-0.0
 031964,-0.0057911,0.1123824,0.3277611,-0.0041724,-0.0044428,-0.0057056
 ,0.3742068,-0.0974153,-0.0043616,-0.0719077,0.2591296\Polar=51.1448577
 ,0.0435195,89.8014664,2.9468828,-1.2559216,100.1468231\Quadrupole=-1.6
 719081,3.0471105,-1.3752024,0.0434503,0.019048,0.4871846\PG=C01 [X(C5H
 6N2O2)]\NImag=0\\0.58778412,-0.00454539,0.54322056,-0.00034676,-0.0734
 9173,0.58579974,-0.06021971,-0.00442717,-0.00594063,0.15901331,-0.0037
 8875,-0.18429252,-0.05680424,0.00728498,0.78603020,-0.00597359,-0.0674
 4534,-0.15597643,0.03410138,0.08942897,0.72084241,-0.01030651,-0.00056
 386,-0.00137090,-0.07258494,0.00430763,-0.01320494,0.11119775,-0.00182
 294,0.00758420,-0.03130993,0.00140032,-0.12556371,0.02608842,0.0032400
 7,0.58663230,-0.00130547,-0.01030236,-0.03148832,-0.01305910,0.0745392
 8,-0.29327058,0.02510205,0.02976922,0.52664299,0.00670832,0.00027855,-
 0.00069045,0.01152248,-0.00214762,-0.00709954,-0.07446725,-0.00633384,
 -0.00527453,0.14655799,0.00014003,0.00643886,0.00236403,-0.00444106,-0
 .03339740,-0.07175936,-0.00682188,-0.32021953,-0.10121349,0.00296763,0
 .60449354,-0.00068322,0.00465343,-0.00487878,-0.00698287,-0.03349404,-
 0.10275633,-0.00524954,-0.09308180,-0.15691674,0.04514258,0.02606278,0
 .89508148,0.00199801,0.00041863,-0.00013470,0.01362165,-0.00422617,-0.
 00220893,0.02062775,0.00272289,0.00112404,-0.06971235,0.00428942,-0.00
 846904,0.12950342,0.00027039,-0.00394493,0.00480642,-0.00054793,-0.068
 93548,-0.00492642,-0.00217591,-0.08302246,-0.03101417,0.00693123,-0.22
 258879,0.12334266,0.00654869,0.88192142,-0.00012816,0.00728108,-0.0004
 8813,-0.00239392,-0.06625441,-0.02280050,0.00137221,0.05065629,0.04086
 065,-0.00860335,0.07930751,-0.21667315,0.02823358,0.07085371,0.5948835
 1,-0.00400281,-0.00137848,0.00108335,-0.06970737,0.00033234,-0.0020122
 8,0.01988164,0.00100362,-0.00629935,0.01180724,0.00432051,-0.00443792,
 -0.06834545,-0.00784495,-0.01399557,0.14161126,-0.00010330,-0.01861943
 ,-0.00098821,0.00070375,-0.31461849,0.02419656,0.00370889,-0.05661726,
 0.06574577,-0.00055407,0.03047198,-0.01016939,-0.00641978,-0.16453273,
 -0.10209674,-0.00011674,0.67029804,0.00101935,-0.02223932,0.01404781,-
 0.00203173,0.01799956,-0.10434051,-0.00643702,0.02063416,-0.08811365,-
 0.00419040,0.07109609,-0.06140793,-0.01406651,-0.12585141,-0.29561731,
 0.04022838,-0.02896090,0.81120088,-0.00085391,0.00037925,0.00025534,-0
 .00708433,0.00151347,-0.00024801,0.00816744,-0.00041901,0.00116841,0.0
 0529977,-0.00106186,-0.00062318,-0.00198492,0.00050877,-0.00167920,-0.
 07579473,0.00303003,-0.00782795,0.21989203,0.00011048,0.00050919,0.001
 77449,0.00249114,-0.01919453,0.04214169,-0.00063617,-0.00948997,-0.009
 71214,-0.00045875,0.00556852,-0.00766024,-0.00020475,0.01404205,-0.004
 22228,0.00328154,-0.11461927,0.05666889,0.01072874,0.71441706,0.000268
 46,0.00624597,0.00329565,-0.00029670,0.02584297,-0.01335218,0.00117844
 ,-0.00608464,0.02806392,-0.00065393,-0.01771424,-0.00466170,-0.0016441
 2,0.00768038,-0.02966738,-0.00783985,0.05246641,-0.20866275,0.04318587
 ,0.15301629,0.92865698,-0.00195227,-0.00007584,-0.00006645,-0.00055119
 ,-0.00063213,0.00061028,-0.00035938,0.00004254,-0.00072360,-0.00169546
 ,0.00043191,-0.00001675,0.00313722,0.00045463,0.00013312,0.02193125,-0
 .00151276,-0.00532079,-0.08295785,-0.01692335,-0.03046745,0.03686919,0
 .00007903,-0.00654756,0.00153958,-0.00004860,-0.00307860,-0.00067960,-
 0.00024036,0.00128216,-0.00409057,0.00009760,0.00376732,0.00134809,0.0
 0029727,-0.00052816,0.00513892,-0.00063536,0.01624910,-0.01027206,-0.0
 1682773,-0.27899943,-0.27003452,0.02180876,0.33911133,-0.00007417,-0.0
 0103308,-0.00313268,0.00057986,-0.01040673,0.00961463,-0.00070873,0.00
 062577,-0.01216624,0.00000066,0.00692313,-0.00204032,0.00014089,0.0077
 5246,0.00508614,-0.00536639,-0.02487372,-0.06585527,-0.03047157,-0.271
 63524,-0.57454328,0.03737019,0.34748553,0.63900421,0.00060778,-0.00010
 372,-0.00011391,0.00250819,-0.00006445,-0.00053527,-0.00097672,0.00026
 090,-0.00008729,-0.00025175,0.00000713,0.00009652,0.00037588,0.0001016
 5,-0.00009354,0.01176959,0.00249704,-0.00086519,-0.06670584,0.00116381
 ,-0.00375788,0.02948286,-0.00438796,-0.00141431,0.03950920,-0.00002171
 ,-0.00053668,-0.00030383,0.00006232,0.00805178,0.00075861,0.00036504,-
 0.00099734,0.00608621,-0.00000312,-0.00401106,0.00013730,-0.00022579,-
 0.00156521,-0.00366142,0.00093834,-0.03752936,0.01817750,-0.00086409,-
 0.28548152,-0.00307324,-0.00360806,-0.07979385,-0.05443514,-0.00513903
 ,0.48147376,-0.00011795,-0.00166853,-0.00126701,-0.00054151,-0.0013599
 1,-0.00641813,-0.00009275,0.00434977,-0.00273838,0.00009706,0.00031170
 ,0.00134544,-0.00007665,0.00179250,-0.00098913,-0.00078501,0.04414441,
 -0.00353945,-0.00365326,0.03069613,-0.12891418,-0.00145435,-0.06742891
 ,0.00884433,0.03364199,-0.10852501,0.60336117,-0.22075934,-0.01290183,
 0.13571585,0.00720324,0.00254408,-0.00311397,-0.00002339,-0.00066057,-
 0.00173235,-0.00048750,0.00056128,-0.00027805,-0.00008398,0.00005974,0
 .00048357,0.00070068,-0.00038638,0.00009470,0.00003941,0.00121844,0.00
 189159,0.00038248,-0.00191273,-0.00055519,-0.00021881,-0.00079029,-0.0
 0038191,0.23158768,-0.01879736,-0.05064899,0.01559284,0.02072541,-0.00
 264471,-0.02508349,0.00243979,-0.00110661,0.00292935,-0.00044032,-0.00
 280238,-0.00125132,-0.00039573,0.00029602,-0.00268569,0.00089448,0.001
 53691,0.00179208,0.00038510,-0.00124485,-0.00327288,-0.00000323,0.0002
 3276,0.00207758,-0.00009797,0.00035827,0.00040401,0.01553541,0.0544376
 1,0.13253118,0.00972891,-0.15089718,0.01447392,-0.00326080,-0.01972951
 ,0.00237385,-0.00267692,-0.00001404,-0.00094910,-0.00123726,-0.0008024
 4,-0.00016025,0.00003692,-0.00117233,-0.00006144,0.00179760,0.00020463
 ,0.00032974,-0.00000295,0.00034542,-0.00061635,0.00052313,-0.00039487,
 0.00011896,-0.00015675,0.00004062,-0.14623964,-0.00444790,0.16904637,-
 0.25141373,0.01513089,-0.12349571,0.00530942,-0.00296440,-0.00005652,-
 0.00011007,0.00033013,0.00176145,-0.00034898,-0.00071998,0.00021543,-0
 .00013780,-0.00005241,-0.00062449,0.00068917,0.00060375,-0.00014205,-0
 .00023227,-0.00121662,-0.00184213,0.00052389,0.00195976,0.00045774,-0.
 00017819,0.00076917,0.00041099,-0.02110218,0.00276993,-0.01330097,0.26
 524112,0.02168616,-0.05085729,0.01394779,-0.02363194,-0.00249640,-0.02
 242898,-0.00207900,-0.00109505,0.00319032,0.00027297,-0.00280098,-0.00
 129544,0.00007460,0.00029494,-0.00271071,-0.00066893,0.00153879,0.0018
 8627,-0.00078013,-0.00123354,-0.00319065,0.00025015,0.00021595,0.00206
 148,0.00014886,0.00035251,0.00038664,-0.00268976,0.00027617,-0.0001983
 3,-0.01716880,0.05464159,-0.12034473,0.00881377,-0.12003595,-0.0175195
 5,-0.00283553,-0.01798524,-0.00237922,-0.00272113,0.00006256,0.0008872
 0,-0.00116648,-0.00094255,0.00003591,0.00004301,-0.00111779,0.00001357
 ,0.00173832,0.00021447,-0.00026041,0.00014501,0.00060527,0.00050888,0.
 00028973,-0.00052505,-0.00009351,-0.00024957,0.00000575,0.01724197,-0.
 00061794,0.01161341,0.13460724,-0.00333835,0.13519708,-0.05135753,0.00
 781263,-0.00474210,-0.00174953,-0.00177599,0.00079837,0.00019710,-0.00
 007846,0.00009262,-0.00024799,-0.00005630,0.00001974,0.00039721,-0.000
 08682,-0.00005536,0.00068660,-0.00001651,-0.00027715,-0.00021326,-0.00
 005297,-0.00010417,0.00098725,0.00010982,-0.00003295,-0.00021915,0.000
 03506,0.00003737,0.00282866,-0.02225056,0.01186742,0.00177211,0.023825
 89,-0.01306220,0.04695702,0.00683931,-0.24342633,0.12350477,0.00064517
 ,-0.03433354,0.01238210,0.00024283,0.00280214,0.00391709,-0.00000936,-
 0.00023907,-0.00015575,-0.00000486,-0.00100889,-0.00000875,-0.00023045
 ,0.00124366,-0.00387491,-0.00003936,0.00015353,-0.00067387,0.00001533,
 0.00031620,0.00028892,0.00001405,-0.00002814,0.00022450,-0.00066110,0.
 00161690,0.00007521,0.00066510,0.00147432,0.00007084,-0.00745392,0.271
 37771,-0.00469328,0.13971480,-0.13623913,0.00067679,-0.02794287,0.0108
 8104,0.00007635,-0.00143814,0.00154045,0.00001742,-0.00094117,0.000086
 80,-0.00005967,-0.00137400,-0.00052388,-0.00026589,-0.00029916,-0.0037
 1690,-0.00010504,-0.00090178,-0.00191026,-0.00002814,0.00186666,0.0004
 2582,0.00003850,0.00057462,0.00038989,-0.00307318,0.01454605,-0.008213
 43,0.00195729,0.01176446,-0.00701487,0.00547724,-0.13536735,0.14462618
 ,0.00222775,0.00001975,-0.00013668,0.00687552,-0.00017648,-0.00033755,
 -0.00713669,-0.00002165,-0.00028811,-0.03412602,-0.00058602,-0.0194980
 4,0.00143586,-0.00026189,-0.00042304,0.00539497,0.00009252,-0.00038444
 ,0.00134495,-0.00003718,-0.00006103,-0.00055510,0.00000582,0.00000846,
 -0.00009868,0.00001362,-0.00000127,-0.00006429,-0.00046951,-0.00029041
 ,-0.00002178,0.00046625,0.00028614,-0.00010407,0.00000070,0.00000658,0
 .02700442,-0.00006105,0.00100703,-0.00095595,-0.00034981,-0.00556772,-
 0.00519753,-0.00181127,0.00291233,-0.03070523,-0.00008735,-0.05784109,
 -0.00019258,0.00123279,0.00879853,0.02017926,0.00016196,-0.00523438,0.
 00324186,-0.00001115,0.00132759,-0.00018347,0.00006214,-0.00001364,0.0
 0100693,0.00000572,-0.00009622,0.00009499,-0.00003700,-0.00023301,-0.0
 0020142,0.00001138,-0.00023595,-0.00020605,0.00000446,0.00005063,0.000
 06640,0.00092896,0.05500243,-0.00013247,0.00039228,0.00000698,-0.00032
 891,-0.00230888,0.00153139,-0.00019704,-0.00087111,-0.01036055,-0.0195
 2330,-0.00850603,-0.35798706,-0.00049909,-0.00473838,-0.00661754,-0.00
 038788,0.00208414,-0.00115447,-0.00006241,-0.00061879,0.00033945,0.000
 00552,0.00006999,-0.00046677,-0.00000087,0.00022657,-0.00012459,-0.000
 04148,0.00001080,-0.00004854,0.00003832,-0.00004557,-0.00008806,0.0000
 0642,0.00000392,0.00000244,0.02099670,0.01399969,0.37505810,0.00151620
 ,-0.00004761,-0.00001723,0.00441501,-0.00020271,-0.00063345,0.00669055
 ,0.00033394,-0.00055316,-0.00099000,0.00098425,0.00078741,-0.03034520,
 -0.00388233,-0.00224969,-0.00037862,-0.00146125,0.00030473,-0.00266519
 ,-0.00009917,0.00020853,0.00037385,0.00004610,-0.00000165,-0.00000630,
 0.00006977,-0.00002591,-0.00000882,-0.00031671,-0.00007009,-0.00000165
 ,0.00031403,0.00007285,0.00007643,-0.00002393,-0.00002700,-0.00219327,
 -0.00004876,0.00012678,0.02364187,0.00000740,-0.00007818,0.00020377,0.
 00001451,0.00038608,0.00044896,0.00005216,-0.00268716,0.00134789,-0.00
 051336,-0.00710638,-0.00824939,-0.00408890,-0.35961445,-0.05142597,0.0
 0016186,-0.00319668,0.00284155,-0.00001544,-0.00093794,-0.00034599,-0.
 00000825,0.00015631,-0.00012619,0.00005086,-0.00014974,0.00085517,-0.0
 0000791,0.00002116,-0.00001544,0.00000613,0.00001919,-0.00001670,-0.00
 000847,0.00003369,-0.00013878,0.00002719,0.00006072,0.00033810,0.00431
 722,0.37285444,-0.00002000,-0.00071123,0.00121938,-0.00064458,-0.00317
 251,-0.00613063,-0.00053881,0.00604491,-0.00256699,0.00086351,0.016716
 35,0.01250542,-0.00223906,-0.04797799,-0.06508958,0.00022221,-0.024223
 26,0.00454361,0.00020402,-0.00174138,0.00081391,0.00000130,0.00078078,
 0.00035483,-0.00002497,0.00117062,-0.00048158,0.00002957,-0.00000523,0
 .00002108,-0.00002686,-0.00004290,0.00001584,-0.00002772,-0.00039621,-
 0.00036381,0.00012290,-0.00092759,-0.00010466,0.00206972,0.05421790,0.
 05525566,0.00002362,0.00000421,0.00000100,0.00142826,-0.00000379,-0.00
 008599,-0.00079728,0.00000206,0.00007439,0.00043151,-0.00001506,-0.000
 02305,-0.00048731,-0.00002285,0.00002386,0.00375659,-0.00006518,-0.000
 10393,0.00374867,0.00063481,-0.00006563,-0.00561672,-0.00035141,0.0000
 6716,-0.01559808,0.00839878,-0.02705684,0.00000617,0.00002127,-0.00000
 685,0.00001094,-0.00002035,0.00000584,-0.00001084,0.00000050,0.0000020
 3,0.00001643,-0.00000102,-0.00000027,-0.00012485,0.00000501,0.00000878
 ,0.01321286,0.00000771,0.00019209,0.00012020,0.00011891,-0.00034496,0.
 00207541,-0.00002796,-0.00041402,-0.00048715,-0.00000018,0.00026649,0.
 00000570,-0.00001830,0.00038815,-0.00035080,-0.00021973,-0.00637087,-0
 .00313936,0.00347343,-0.02481688,0.05932149,-0.00030184,0.00763014,-0.
 00571170,0.00554309,-0.08004719,0.09572253,0.00012864,-0.00009523,0.00
 003598,-0.00012403,-0.00009427,0.00005107,-0.00000785,-0.00003281,-0.0
 0012973,-0.00000206,0.00006275,-0.00003671,0.00001715,0.00023894,0.000
 26774,-0.00858698,0.10343769,0.00000082,0.00006135,0.00003405,-0.00009
 246,0.00002914,-0.00010942,0.00007606,0.00001513,0.00046492,-0.0000238
 3,-0.00024356,0.00004788,0.00002360,-0.00042569,-0.00007359,-0.0000959
 2,-0.00056183,0.00219684,-0.00021233,0.01205230,-0.00040886,0.00006460
 ,-0.00653673,-0.00420547,-0.02690922,0.14327353,-0.46951475,-0.0000414
 8,0.00001174,0.00000081,0.00004027,0.00001397,-0.00000488,0.00000246,0
 .00000949,0.00002966,-0.00000021,-0.00001931,0.00001389,0.00000815,0.0
 0006511,0.00000752,0.02715949,-0.14774465,0.47152139\\-0.00000158,-0.0
 0004106,-0.00002355,-0.00000530,-0.00003904,-0.00008285,0.00000345,-0.
 00002370,0.00005041,0.00000944,-0.00007423,0.00016721,0.00000371,0.000
 23906,0.00002806,-0.00000890,-0.00012135,-0.00012359,0.00000077,0.0000
 9152,0.00002432,-0.00000340,-0.00005934,-0.00006737,0.00000259,0.00001
 052,0.00004159,0.00000473,0.00001227,-0.00002046,-0.00000690,0.0000124
 7,-0.00001987,0.00000020,0.00000487,0.00000392,0.00000095,0.00000962,0
 .00001759,0.00000037,-0.00000601,0.00000653,-0.00000010,-0.00001561,-0
 .00000195\\\@
 The archive entry for this job was punched.


 THERE IS NO SCIENCE WITHOUT FANCY, NOR ART WITHOUT FACTS.
     -- VLADIMIR NABAKOV
 Job cpu time:       0 days  9 hours 48 minutes 46.5 seconds.
 Elapsed time:       0 days  0 hours 29 minutes 27.0 seconds.
 File lengths (MBytes):  RWF=    335 Int=      0 D2E=      0 Chk=     25 Scr=      1
 Normal termination of Gaussian 16 at Tue Mar  4 18:13:09 2025.
