 Entering Gaussian System, Link 0=g16
 Initial command:
 /usr/local/gaussian16c01/g16/l1.exe "/scr/dhuang/Gau-186973.inp" -scrdir="/scr/dhuang/"
 Entering Link 1 = /usr/local/gaussian16c01/g16/l1.exe PID=    186975.
  
 Copyright (c) 1988-2019, Gaussian, Inc.  All Rights Reserved.
  
 This is part of the Gaussian(R) 16 program.  It is based on
 the Gaussian(R) 09 system (copyright 2009, Gaussian, Inc.),
 the Gaussian(R) 03 system (copyright 2003, Gaussian, Inc.),
 the Gaussian(R) 98 system (copyright 1998, Gaussian, Inc.),
 the Gaussian(R) 94 system (copyright 1995, Gaussian, Inc.),
 the Gaussian 92(TM) system (copyright 1992, Gaussian, Inc.),
 the Gaussian 90(TM) system (copyright 1990, Gaussian, Inc.),
 the Gaussian 88(TM) system (copyright 1988, Gaussian, Inc.),
 the Gaussian 86(TM) system (copyright 1986, Carnegie Mellon
 University), and the Gaussian 82(TM) system (copyright 1983,
 Carnegie Mellon University). Gaussian is a federally registered
 trademark of Gaussian, Inc.
  
 This software contains proprietary and confidential information,
 including trade secrets, belonging to Gaussian, Inc.
  
 This software is provided under written license and may be
 used, copied, transmitted, or stored only in accord with that
 written license.
  
 The following legend is applicable only to US Government
 contracts under FAR:
  
                    RESTRICTED RIGHTS LEGEND
  
 Use, reproduction and disclosure by the US Government is
 subject to restrictions as set forth in subparagraphs (a)
 and (c) of the Commercial Computer Software - Restricted
 Rights clause in FAR 52.227-19.
  
 Gaussian, Inc.
 340 Quinnipiac St., Bldg. 40, Wallingford CT 06492
  
  
 ---------------------------------------------------------------
 Warning -- This program may not be used in any manner that
 competes with the business of Gaussian, Inc. or will provide
 assistance to any competitor of Gaussian, Inc.  The licensee
 of this program is prohibited from giving any competitor of
 Gaussian, Inc. access to this program.  By using this program,
 the user acknowledges that Gaussian, Inc. is engaged in the
 business of creating and licensing software in the field of
 computational chemistry and represents and warrants to the
 licensee that it is not a competitor of Gaussian, Inc. and that
 it will not use this program in any manner prohibited above.
 ---------------------------------------------------------------
  

 Cite this work as:
 Gaussian 16, Revision C.01,
 M. J. Frisch, G. W. Trucks, H. B. Schlegel, G. E. Scuseria, 
 M. A. Robb, J. R. Cheeseman, G. Scalmani, V. Barone, 
 G. A. Petersson, H. Nakatsuji, X. Li, M. Caricato, A. V. Marenich, 
 J. Bloino, B. G. Janesko, R. Gomperts, B. Mennucci, H. P. Hratchian, 
 J. V. Ortiz, A. F. Izmaylov, J. L. Sonnenberg, D. Williams-Young, 
 F. Ding, F. Lipparini, F. Egidi, J. Goings, B. Peng, A. Petrone, 
 T. Henderson, D. Ranasinghe, V. G. Zakrzewski, J. Gao, N. Rega, 
 G. Zheng, W. Liang, M. Hada, M. Ehara, K. Toyota, R. Fukuda, 
 J. Hasegawa, M. Ishida, T. Nakajima, Y. Honda, O. Kitao, H. Nakai, 
 T. Vreven, K. Throssell, J. A. Montgomery, Jr., J. E. Peralta, 
 F. Ogliaro, M. J. Bearpark, J. J. Heyd, E. N. Brothers, K. N. Kudin, 
 V. N. Staroverov, T. A. Keith, R. Kobayashi, J. Normand, 
 K. Raghavachari, A. P. Rendell, J. C. Burant, S. S. Iyengar, 
 J. Tomasi, M. Cossi, J. M. Millam, M. Klene, C. Adamo, R. Cammi, 
 J. W. Ochterski, R. L. Martin, K. Morokuma, O. Farkas, 
 J. B. Foresman, and D. J. Fox, Gaussian, Inc., Wallingford CT, 2019.
 
 ******************************************
 Gaussian 16:  ES64L-G16RevC.01  3-Jul-2019
                 4-Mar-2025 
 ******************************************
 %nprocshared=20
 Will use up to   20 processors via shared memory.
 %mem=10000MW
 %chk=9.chk
 ------------------------------------
 # opt freq m062x/aug-cc-pvtz pop=nbo
 ------------------------------------
 1/18=20,19=15,26=3,38=1/1,3;
 2/9=110,12=2,17=6,18=5,40=1/2;
 3/5=16,6=1,7=10,11=2,25=1,30=1,71=1,74=-55/1,2,3;
 4//1;
 5/5=2,38=5/2;
 6/7=2,8=2,9=2,10=2,28=1,40=1/1,7;
 7//1,2,3,16;
 1/18=20,19=15,26=3/3(2);
 2/9=110/2;
 99//99;
 2/9=110/2;
 3/5=16,6=1,7=10,11=2,25=1,30=1,71=1,74=-55/1,2,3;
 4/5=5,16=3,69=1/1;
 5/5=2,38=5/2;
 7//1,2,3,16;
 1/18=20,19=15,26=3/3(-5);
 2/9=110/2;
 6/7=2,8=2,9=2,10=2,19=2,28=1,40=1/1,7;
 99/9=1/99;
 -
 9
 -
 Symbolic Z-matrix:
 Charge =  0 Multiplicity = 1
 C                    -1.52541   1.9385   -0.32287 
 N                    -1.63287   0.91109  -1.37921 
 N                    -1.6785    1.19947  -2.58048 
 C                    -1.76805   0.1008   -3.19493 
 C                    -1.77832  -0.92171  -2.32713 
 C                    -1.6857   -0.3387   -1.11452 
 C                    -1.87598  -2.36208  -2.74086 
 C                    -1.6595   -0.9932    0.0848 
 O                    -1.57399  -0.40647   1.1476 
 O                    -1.7287   -2.3476    0.1468 
 H                    -2.41429   1.92628   0.34794 
 H                    -0.57813   1.83146   0.25291 
 H                    -1.49674   2.95506  -0.77784 
 H                    -1.82708   0.03704  -4.28895 
 H                    -1.9377   -2.45897  -3.84817 
 H                    -0.9743   -2.93031  -2.41861 
 H                    -2.7952   -2.83353  -2.32572 
 H                    -1.69819  -2.65143   1.06321 
 

 GradGradGradGradGradGradGradGradGradGradGradGradGradGradGradGradGradGrad
 Berny optimization.
 Initialization pass.
                           ----------------------------
                           !    Initial Parameters    !
                           ! (Angstroms and Degrees)  !
 --------------------------                            --------------------------
 ! Name  Definition              Value          Derivative Info.                !
 --------------------------------------------------------------------------------
 ! R1    R(1,2)                  1.4775         estimate D2E/DX2                !
 ! R2    R(1,11)                 1.1137         estimate D2E/DX2                !
 ! R3    R(1,12)                 1.1137         estimate D2E/DX2                !
 ! R4    R(1,13)                 1.1141         estimate D2E/DX2                !
 ! R5    R(2,3)                  1.2362         estimate D2E/DX2                !
 ! R6    R(2,6)                  1.2786         estimate D2E/DX2                !
 ! R7    R(3,4)                  1.262          estimate D2E/DX2                !
 ! R8    R(4,5)                  1.3412         estimate D2E/DX2                !
 ! R9    R(4,14)                 1.0975         estimate D2E/DX2                !
 ! R10   R(5,6)                  1.3487         estimate D2E/DX2                !
 ! R11   R(5,7)                  1.5018         estimate D2E/DX2                !
 ! R12   R(6,8)                  1.3665         estimate D2E/DX2                !
 ! R13   R(7,15)                 1.1132         estimate D2E/DX2                !
 ! R14   R(7,16)                 1.1134         estimate D2E/DX2                !
 ! R15   R(7,17)                 1.1134         estimate D2E/DX2                !
 ! R16   R(8,9)                  1.217          estimate D2E/DX2                !
 ! R17   R(8,10)                 1.3576         estimate D2E/DX2                !
 ! R18   R(10,18)                0.9659         estimate D2E/DX2                !
 ! A1    A(2,1,11)             111.4055         estimate D2E/DX2                !
 ! A2    A(2,1,12)             111.3868         estimate D2E/DX2                !
 ! A3    A(2,1,13)             110.1447         estimate D2E/DX2                !
 ! A4    A(11,1,12)            111.4958         estimate D2E/DX2                !
 ! A5    A(11,1,13)            106.0534         estimate D2E/DX2                !
 ! A6    A(12,1,13)            106.0777         estimate D2E/DX2                !
 ! A7    A(1,2,3)              122.3582         estimate D2E/DX2                !
 ! A8    A(1,2,6)              122.3235         estimate D2E/DX2                !
 ! A9    A(3,2,6)              115.3183         estimate D2E/DX2                !
 ! A10   A(2,3,4)              105.8224         estimate D2E/DX2                !
 ! A11   A(3,4,5)              110.4404         estimate D2E/DX2                !
 ! A12   A(3,4,14)             122.6671         estimate D2E/DX2                !
 ! A13   A(5,4,14)             126.8925         estimate D2E/DX2                !
 ! A14   A(4,5,6)              104.5766         estimate D2E/DX2                !
 ! A15   A(4,5,7)              123.6048         estimate D2E/DX2                !
 ! A16   A(6,5,7)              131.8186         estimate D2E/DX2                !
 ! A17   A(2,6,5)              103.8423         estimate D2E/DX2                !
 ! A18   A(2,6,8)              130.4699         estimate D2E/DX2                !
 ! A19   A(5,6,8)              125.6878         estimate D2E/DX2                !
 ! A20   A(5,7,15)             111.1679         estimate D2E/DX2                !
 ! A21   A(5,7,16)             110.9201         estimate D2E/DX2                !
 ! A22   A(5,7,17)             110.922          estimate D2E/DX2                !
 ! A23   A(15,7,16)            106.7594         estimate D2E/DX2                !
 ! A24   A(15,7,17)            106.7536         estimate D2E/DX2                !
 ! A25   A(16,7,17)            110.1565         estimate D2E/DX2                !
 ! A26   A(6,8,9)              122.471          estimate D2E/DX2                !
 ! A27   A(6,8,10)             121.1266         estimate D2E/DX2                !
 ! A28   A(9,8,10)             116.4024         estimate D2E/DX2                !
 ! A29   A(8,10,18)            110.8254         estimate D2E/DX2                !
 ! D1    D(11,1,2,3)           117.4942         estimate D2E/DX2                !
 ! D2    D(11,1,2,6)           -62.4786         estimate D2E/DX2                !
 ! D3    D(12,1,2,3)          -117.3213         estimate D2E/DX2                !
 ! D4    D(12,1,2,6)            62.7058         estimate D2E/DX2                !
 ! D5    D(13,1,2,3)             0.0957         estimate D2E/DX2                !
 ! D6    D(13,1,2,6)          -179.8771         estimate D2E/DX2                !
 ! D7    D(1,2,3,4)           -179.9673         estimate D2E/DX2                !
 ! D8    D(6,2,3,4)              0.0073         estimate D2E/DX2                !
 ! D9    D(1,2,6,5)            179.9645         estimate D2E/DX2                !
 ! D10   D(1,2,6,8)             -0.0299         estimate D2E/DX2                !
 ! D11   D(3,2,6,5)             -0.0101         estimate D2E/DX2                !
 ! D12   D(3,2,6,8)            179.9955         estimate D2E/DX2                !
 ! D13   D(2,3,4,5)             -0.0012         estimate D2E/DX2                !
 ! D14   D(2,3,4,14)           179.991          estimate D2E/DX2                !
 ! D15   D(3,4,5,6)             -0.0047         estimate D2E/DX2                !
 ! D16   D(3,4,5,7)            179.9933         estimate D2E/DX2                !
 ! D17   D(14,4,5,6)          -179.9964         estimate D2E/DX2                !
 ! D18   D(14,4,5,7)             0.0015         estimate D2E/DX2                !
 ! D19   D(4,5,6,2)              0.0083         estimate D2E/DX2                !
 ! D20   D(4,5,6,8)           -179.9969         estimate D2E/DX2                !
 ! D21   D(7,5,6,2)           -179.9894         estimate D2E/DX2                !
 ! D22   D(7,5,6,8)              0.0054         estimate D2E/DX2                !
 ! D23   D(4,5,7,15)            -0.0145         estimate D2E/DX2                !
 ! D24   D(4,5,7,16)           118.6099         estimate D2E/DX2                !
 ! D25   D(4,5,7,17)          -118.6327         estimate D2E/DX2                !
 ! D26   D(6,5,7,15)           179.9829         estimate D2E/DX2                !
 ! D27   D(6,5,7,16)           -61.3928         estimate D2E/DX2                !
 ! D28   D(6,5,7,17)            61.3646         estimate D2E/DX2                !
 ! D29   D(2,6,8,9)             -0.0241         estimate D2E/DX2                !
 ! D30   D(2,6,8,10)           179.9737         estimate D2E/DX2                !
 ! D31   D(5,6,8,9)            179.9826         estimate D2E/DX2                !
 ! D32   D(5,6,8,10)            -0.0196         estimate D2E/DX2                !
 ! D33   D(6,8,10,18)         -180.0            estimate D2E/DX2                !
 ! D34   D(9,8,10,18)           -0.002          estimate D2E/DX2                !
 --------------------------------------------------------------------------------
 Trust Radius=3.00D-01 FncErr=1.00D-07 GrdErr=1.00D-06 EigMax=2.50D+02 EigMin=1.00D-04
 Number of steps in this run=     91 maximum allowed number of steps=    108.
 GradGradGradGradGradGradGradGradGradGradGradGradGradGradGradGradGradGrad

                          Input orientation:                          
 ---------------------------------------------------------------------
 Center     Atomic      Atomic             Coordinates (Angstroms)
 Number     Number       Type             X           Y           Z
 ---------------------------------------------------------------------
      1          6           0       -1.525408    1.938499   -0.322867
      2          7           0       -1.632874    0.911093   -1.379211
      3          7           0       -1.678498    1.199466   -2.580479
      4          6           0       -1.768046    0.100799   -3.194931
      5          6           0       -1.778320   -0.921707   -2.327127
      6          6           0       -1.685700   -0.338698   -1.114519
      7          6           0       -1.875980   -2.362081   -2.740864
      8          6           0       -1.659500   -0.993200    0.084800
      9          8           0       -1.573986   -0.406474    1.147603
     10          8           0       -1.728700   -2.347600    0.146800
     11          1           0       -2.414291    1.926281    0.347940
     12          1           0       -0.578131    1.831457    0.252907
     13          1           0       -1.496738    2.955062   -0.777839
     14          1           0       -1.827084    0.037036   -4.288955
     15          1           0       -1.937695   -2.458969   -3.848168
     16          1           0       -0.974305   -2.930306   -2.418612
     17          1           0       -2.795200   -2.833534   -2.325724
     18          1           0       -1.698194   -2.651430    1.063211
 ---------------------------------------------------------------------
                    Distance matrix (angstroms):
                    1          2          3          4          5
     1  C    0.000000
     2  N    1.477490   0.000000
     3  N    2.380424   1.236238   0.000000
     4  C    3.418299   1.992908   1.261998   0.000000
     5  C    3.501686   2.068539   2.138581   1.341159   0.000000
     6  C    2.416202   1.278604   2.124862   2.127922   1.348665
     7  C    4.946171   3.553430   3.570622   2.506712   1.501796
     8  C    2.962943   2.402159   3.451356   3.459082   2.415910
     9  O    2.768310   2.850306   4.060611   4.376367   3.518660
    10  O    4.316545   3.599580   4.474623   4.142870   2.855862
    11  H    1.113662   2.150411   3.105686   4.037567   3.958722
    12  H    1.113691   2.150201   3.104561   4.037160   3.959412
    13  H    1.114101   2.134945   2.522828   3.750034   4.184366
    14  H    4.408676   3.044388   2.071766   1.097470   2.184110
    15  H    5.651146   4.188792   3.880511   2.647246   2.168441
    16  H    5.329271   4.033660   4.192506   3.228048   2.165474
    17  H    5.328800   4.033499   4.192495   3.228138   2.165439
    18  H    4.797761   4.319869   5.301534   5.070642   3.806935
                    6          7          8          9         10
     6  C    0.000000
     7  C    2.602938   0.000000
     8  C    1.366538   3.147233   0.000000
     9  O    2.265893   4.363001   1.217009   0.000000
    10  O    2.372438   2.891454   1.357583   2.189410   0.000000
    11  H    2.792805   5.312301   3.026933   2.605249   4.333192
    12  H    2.793946   5.313458   3.029242   2.607785   4.335849
    13  H    3.316309   5.680607   4.044676   3.874689   5.387669
    14  H    3.199720   2.855650   4.496577   5.460488   5.037071
    15  H    3.468701   1.113246   4.206436   5.413201   4.001980
    16  H    2.987169   1.113438   3.238664   4.409903   2.736786
    17  H    2.987008   1.113361   3.238406   4.409761   2.736226
    18  H    3.176696   3.819204   1.925750   2.249973   0.965947
                   11         12         13         14         15
    11  H    0.000000
    12  H    1.841061   0.000000
    13  H    1.779795   1.780102   0.000000
    14  H    5.041314   5.040669   4.577329   0.000000
    15  H    6.088093   6.088923   6.239638   2.537039   0.000000
    16  H    5.771812   5.474336   6.132098   3.609783   1.787151
    17  H    5.472606   5.772943   6.131051   3.609943   1.787022
    18  H    4.688267   4.691205   5.904473   5.990838   4.920980
                   16         17         18
    16  H    0.000000
    17  H    1.825829   0.000000
    18  H    3.567195   3.566717   0.000000
 Stoichiometry    C6H8N2O2
 Framework group  C1[X(C6H8N2O2)]
 Deg. of freedom    48
 Full point group                 C1      NOp   1
 Largest Abelian subgroup         C1      NOp   1
 Largest concise Abelian subgroup C1      NOp   1
                         Standard orientation:                         
 ---------------------------------------------------------------------
 Center     Atomic      Atomic             Coordinates (Angstroms)
 Number     Number       Type             X           Y           Z
 ---------------------------------------------------------------------
      1          6           0       -1.896315   -1.566922   -0.000544
      2          7           0       -1.270782   -0.228384    0.000140
      3          7           0       -1.936720    0.813159    0.000239
      4          6           0       -1.099114    1.757117    0.000177
      5          6           0        0.151760    1.273359    0.000059
      6          6           0       -0.002472   -0.066458    0.000160
      7          6           0        1.378160    2.140155   -0.000185
      8          6           0        1.008992   -0.985352    0.000157
      9          8           0        0.802192   -2.184662    0.000564
     10          8           0        2.309866   -0.597075   -0.000352
     11          1           0       -1.634398   -2.137495   -0.920375
     12          1           0       -1.637403   -2.136669    0.920683
     13          1           0       -3.006337   -1.471698   -0.002678
     14          1           0       -1.396998    2.813387    0.000092
     15          1           0        1.107256    3.219936   -0.000515
     16          1           0        1.990386    1.963019    0.912802
     17          1           0        1.990338    1.962584   -0.913027
     18          1           0        2.897153   -1.363983   -0.000279
 ---------------------------------------------------------------------
 Rotational constants (GHZ):           1.8177159           1.6267553           0.8684670
 Standard basis: Aug-CC-pVTZ (5D, 7F)
 There are   750 symmetry adapted cartesian basis functions of A   symmetry.
 There are   644 symmetry adapted basis functions of A   symmetry.
   644 basis functions,   936 primitive gaussians,   750 cartesian basis functions
    37 alpha electrons       37 beta electrons
       nuclear repulsion energy       549.3183325271 Hartrees.
 NAtoms=   18 NActive=   18 NUniq=   18 SFac= 1.00D+00 NAtFMM=   60 NAOKFM=F Big=F
 Integral buffers will be    131072 words long.
 Raffenetti 2 integral format.
 Two-electron integral symmetry is turned on.
 One-electron integrals computed using PRISM.
 NBasis=   644 RedAO= T EigKep=  1.04D-06  NBF=   644
 NBsUse=   644 1.00D-06 EigRej= -1.00D+00 NBFU=   644
 ExpMin= 2.53D-02 ExpMax= 1.53D+04 ExpMxC= 5.22D+02 IAcc=3 IRadAn=         5 AccDes= 0.00D+00
 Harris functional with IExCor= 1009 and IRadAn=       5 diagonalized for initial guess.
 HarFok:  IExCor= 1009 AccDes= 0.00D+00 IRadAn=         5 IDoV= 1 UseB2=F ITyADJ=14
 ICtDFT=  3500011 ScaDFX=  1.000000  1.000000  1.000000  1.000000
 FoFCou: FMM=F IPFlag=           0 FMFlag=      100000 FMFlg1=           0
         NFxFlg=           0 DoJE=T BraDBF=F KetDBF=T FulRan=T
         wScrn=  0.000000 ICntrl=       500 IOpCl=  0 I1Cent=   200000004 NGrid=           0
         NMat0=    1 NMatS0=      1 NMatT0=    0 NMatD0=    1 NMtDS0=    0 NMtDT0=    0
 Petite list used in FoFCou.
 Requested convergence on RMS density matrix=1.00D-08 within 128 cycles.
 Requested convergence on MAX density matrix=1.00D-06.
 Requested convergence on             energy=1.00D-06.
 No special actions if energy rises.
 SCF Done:  E(RM062X) =  -493.355175418     A.U. after   13 cycles
            NFock= 13  Conv=0.91D-08     -V/T= 2.0031

 **********************************************************************

            Population analysis using the SCF Density.

 **********************************************************************

 Orbital symmetries:
       Occupied  (A) (A) (A) (A) (A) (A) (A) (A) (A) (A) (A) (A)
                 (A) (A) (A) (A) (A) (A) (A) (A) (A) (A) (A) (A)
                 (A) (A) (A) (A) (A) (A) (A) (A) (A) (A) (A) (A)
                 (A)
       Virtual   (A) (A) (A) (A) (A) (A) (A) (A) (A) (A) (A) (A)
                 (A) (A) (A) (A) (A) (A) (A) (A) (A) (A) (A) (A)
                 (A) (A) (A) (A) (A) (A) (A) (A) (A) (A) (A) (A)
                 (A) (A) (A) (A) (A) (A) (A) (A) (A) (A) (A) (A)
                 (A) (A) (A) (A) (A) (A) (A) (A) (A) (A) (A) (A)
                 (A) (A) (A) (A) (A) (A) (A) (A) (A) (A) (A) (A)
                 (A) (A) (A) (A) (A) (A) (A) (A) (A) (A) (A) (A)
                 (A) (A) (A) (A) (A) (A) (A) (A) (A) (A) (A) (A)
                 (A) (A) (A) (A) (A) (A) (A) (A) (A) (A) (A) (A)
                 (A) (A) (A) (A) (A) (A) (A) (A) (A) (A) (A) (A)
                 (A) (A) (A) (A) (A) (A) (A) (A) (A) (A) (A) (A)
                 (A) (A) (A) (A) (A) (A) (A) (A) (A) (A) (A) (A)
                 (A) (A) (A) (A) (A) (A) (A) (A) (A) (A) (A) (A)
                 (A) (A) (A) (A) (A) (A) (A) (A) (A) (A) (A) (A)
                 (A) (A) (A) (A) (A) (A) (A) (A) (A) (A) (A) (A)
                 (A) (A) (A) (A) (A) (A) (A) (A) (A) (A) (A) (A)
                 (A) (A) (A) (A) (A) (A) (A) (A) (A) (A) (A) (A)
                 (A) (A) (A) (A) (A) (A) (A) (A) (A) (A) (A) (A)
                 (A) (A) (A) (A) (A) (A) (A) (A) (A) (A) (A) (A)
                 (A) (A) (A) (A) (A) (A) (A) (A) (A) (A) (A) (A)
                 (A) (A) (A) (A) (A) (A) (A) (A) (A) (A) (A) (A)
                 (A) (A) (A) (A) (A) (A) (A) (A) (A) (A) (A) (A)
                 (A) (A) (A) (A) (A) (A) (A) (A) (A) (A) (A) (A)
                 (A) (A) (A) (A) (A) (A) (A) (A) (A) (A) (A) (A)
                 (A) (A) (A) (A) (A) (A) (A) (A) (A) (A) (A) (A)
                 (A) (A) (A) (A) (A) (A) (A) (A) (A) (A) (A) (A)
                 (A) (A) (A) (A) (A) (A) (A) (A) (A) (A) (A) (A)
                 (A) (A) (A) (A) (A) (A) (A) (A) (A) (A) (A) (A)
                 (A) (A) (A) (A) (A) (A) (A) (A) (A) (A) (A) (A)
                 (A) (A) (A) (A) (A) (A) (A) (A) (A) (A) (A) (A)
                 (A) (A) (A) (A) (A) (A) (A) (A) (A) (A) (A) (A)
                 (A) (A) (A) (A) (A) (A) (A) (A) (A) (A) (A) (A)
                 (A) (A) (A) (A) (A) (A) (A) (A) (A) (A) (A) (A)
                 (A) (A) (A) (A) (A) (A) (A) (A) (A) (A) (A) (A)
                 (A) (A) (A) (A) (A) (A) (A) (A) (A) (A) (A) (A)
                 (A) (A) (A) (A) (A) (A) (A) (A) (A) (A) (A) (A)
                 (A) (A) (A) (A) (A) (A) (A) (A) (A) (A) (A) (A)
                 (A) (A) (A) (A) (A) (A) (A) (A) (A) (A) (A) (A)
                 (A) (A) (A) (A) (A) (A) (A) (A) (A) (A) (A) (A)
                 (A) (A) (A) (A) (A) (A) (A) (A) (A) (A) (A) (A)
                 (A) (A) (A) (A) (A) (A) (A) (A) (A) (A) (A) (A)
                 (A) (A) (A) (A) (A) (A) (A) (A) (A) (A) (A) (A)
                 (A) (A) (A) (A) (A) (A) (A) (A) (A) (A) (A) (A)
                 (A) (A) (A) (A) (A) (A) (A) (A) (A) (A) (A) (A)
                 (A) (A) (A) (A) (A) (A) (A) (A) (A) (A) (A) (A)
                 (A) (A) (A) (A) (A) (A) (A) (A) (A) (A) (A) (A)
                 (A) (A) (A) (A) (A) (A) (A) (A) (A) (A) (A) (A)
                 (A) (A) (A) (A) (A) (A) (A) (A) (A) (A) (A) (A)
                 (A) (A) (A) (A) (A) (A) (A) (A) (A) (A) (A) (A)
                 (A) (A) (A) (A) (A) (A) (A) (A) (A) (A) (A) (A)
                 (A) (A) (A) (A) (A) (A) (A)
 The electronic state is 1-A.
 Alpha  occ. eigenvalues --  -19.67430 -19.61251 -14.84845 -14.77320 -10.68440
 Alpha  occ. eigenvalues --  -10.58665 -10.56980 -10.54514 -10.54346 -10.54075
 Alpha  occ. eigenvalues --   -1.25972  -1.23968  -1.13760  -0.97799  -0.94880
 Alpha  occ. eigenvalues --   -0.83434  -0.79057  -0.78233  -0.70257  -0.65504
 Alpha  occ. eigenvalues --   -0.63176  -0.60901  -0.58007  -0.54903  -0.53706
 Alpha  occ. eigenvalues --   -0.50533  -0.49406  -0.48966  -0.47748  -0.46943
 Alpha  occ. eigenvalues --   -0.45512  -0.43400  -0.40508  -0.37226  -0.35939
 Alpha  occ. eigenvalues --   -0.33303  -0.31577
 Alpha virt. eigenvalues --   -0.01147  -0.00846   0.00379   0.00537   0.01321
 Alpha virt. eigenvalues --    0.02017   0.02690   0.02919   0.02985   0.04714
 Alpha virt. eigenvalues --    0.04999   0.05914   0.06408   0.06976   0.07131
 Alpha virt. eigenvalues --    0.07605   0.08174   0.08660   0.09054   0.09198
 Alpha virt. eigenvalues --    0.09720   0.09815   0.10431   0.10675   0.10747
 Alpha virt. eigenvalues --    0.11412   0.11844   0.12092   0.12554   0.13479
 Alpha virt. eigenvalues --    0.13887   0.14425   0.14949   0.15041   0.16352
 Alpha virt. eigenvalues --    0.16698   0.17003   0.17579   0.18206   0.18249
 Alpha virt. eigenvalues --    0.19090   0.19469   0.20242   0.20380   0.20676
 Alpha virt. eigenvalues --    0.20840   0.21683   0.22138   0.22737   0.23254
 Alpha virt. eigenvalues --    0.24290   0.24346   0.24563   0.25044   0.25867
 Alpha virt. eigenvalues --    0.26407   0.26713   0.27024   0.27788   0.28043
 Alpha virt. eigenvalues --    0.28643   0.28914   0.29098   0.29780   0.30689
 Alpha virt. eigenvalues --    0.31262   0.31372   0.31481   0.31900   0.32910
 Alpha virt. eigenvalues --    0.33934   0.34021   0.34362   0.34791   0.35086
 Alpha virt. eigenvalues --    0.35510   0.35834   0.36263   0.36369   0.36907
 Alpha virt. eigenvalues --    0.37619   0.38112   0.38461   0.39035   0.39043
 Alpha virt. eigenvalues --    0.39548   0.39738   0.41108   0.41425   0.41447
 Alpha virt. eigenvalues --    0.42152   0.42435   0.42506   0.43312   0.43829
 Alpha virt. eigenvalues --    0.44513   0.45247   0.46024   0.46326   0.46688
 Alpha virt. eigenvalues --    0.47281   0.47752   0.48364   0.48906   0.49531
 Alpha virt. eigenvalues --    0.49564   0.50560   0.50841   0.51444   0.54369
 Alpha virt. eigenvalues --    0.54490   0.55097   0.55357   0.55968   0.56154
 Alpha virt. eigenvalues --    0.56836   0.57488   0.58089   0.58317   0.58582
 Alpha virt. eigenvalues --    0.60290   0.62058   0.62075   0.63768   0.64155
 Alpha virt. eigenvalues --    0.64811   0.65342   0.66757   0.68205   0.68433
 Alpha virt. eigenvalues --    0.69311   0.69811   0.69937   0.70629   0.71078
 Alpha virt. eigenvalues --    0.71623   0.72278   0.72391   0.73133   0.73524
 Alpha virt. eigenvalues --    0.74551   0.74930   0.75166   0.75513   0.75686
 Alpha virt. eigenvalues --    0.76923   0.77574   0.78059   0.78526   0.78930
 Alpha virt. eigenvalues --    0.79620   0.80341   0.80861   0.81855   0.82245
 Alpha virt. eigenvalues --    0.83014   0.83529   0.83582   0.84473   0.84806
 Alpha virt. eigenvalues --    0.84923   0.86631   0.87392   0.87633   0.88844
 Alpha virt. eigenvalues --    0.89334   0.89637   0.90298   0.90533   0.92147
 Alpha virt. eigenvalues --    0.92515   0.92738   0.94291   0.94475   0.94862
 Alpha virt. eigenvalues --    0.95312   0.96332   0.96954   0.97633   0.97807
 Alpha virt. eigenvalues --    0.98568   0.99708   0.99724   1.01137   1.01599
 Alpha virt. eigenvalues --    1.02412   1.02799   1.02878   1.03938   1.04933
 Alpha virt. eigenvalues --    1.05194   1.06272   1.06335   1.07060   1.07262
 Alpha virt. eigenvalues --    1.08629   1.10175   1.10386   1.10455   1.10749
 Alpha virt. eigenvalues --    1.11455   1.11796   1.13137   1.13369   1.14413
 Alpha virt. eigenvalues --    1.15191   1.15348   1.17211   1.18100   1.18796
 Alpha virt. eigenvalues --    1.20675   1.20790   1.22033   1.22255   1.22898
 Alpha virt. eigenvalues --    1.23337   1.26031   1.26631   1.26871   1.27421
 Alpha virt. eigenvalues --    1.29106   1.29164   1.30401   1.30423   1.30500
 Alpha virt. eigenvalues --    1.31652   1.32872   1.34103   1.34285   1.34671
 Alpha virt. eigenvalues --    1.35897   1.36690   1.37919   1.38228   1.39300
 Alpha virt. eigenvalues --    1.39479   1.40795   1.41935   1.42350   1.42464
 Alpha virt. eigenvalues --    1.44617   1.45353   1.45633   1.46198   1.47616
 Alpha virt. eigenvalues --    1.47900   1.48142   1.49228   1.50062   1.50472
 Alpha virt. eigenvalues --    1.50658   1.52203   1.53498   1.54028   1.54181
 Alpha virt. eigenvalues --    1.54481   1.54971   1.55886   1.56155   1.57466
 Alpha virt. eigenvalues --    1.58672   1.59307   1.59802   1.62404   1.63116
 Alpha virt. eigenvalues --    1.63351   1.64043   1.64390   1.65647   1.66241
 Alpha virt. eigenvalues --    1.69239   1.69254   1.69581   1.70929   1.73647
 Alpha virt. eigenvalues --    1.74202   1.74466   1.75338   1.76649   1.77891
 Alpha virt. eigenvalues --    1.79948   1.80844   1.81281   1.81433   1.82739
 Alpha virt. eigenvalues --    1.83722   1.84065   1.85933   1.86735   1.86907
 Alpha virt. eigenvalues --    1.87785   1.88253   1.89161   1.90951   1.91019
 Alpha virt. eigenvalues --    1.93523   1.93844   1.93862   1.97251   1.97637
 Alpha virt. eigenvalues --    1.99929   2.00246   2.01132   2.01288   2.01935
 Alpha virt. eigenvalues --    2.03678   2.04358   2.05313   2.05431   2.06787
 Alpha virt. eigenvalues --    2.10100   2.11408   2.11509   2.12208   2.12982
 Alpha virt. eigenvalues --    2.15412   2.16892   2.18067   2.19376   2.20532
 Alpha virt. eigenvalues --    2.20980   2.22825   2.23079   2.25313   2.26194
 Alpha virt. eigenvalues --    2.26505   2.28234   2.28897   2.29647   2.31178
 Alpha virt. eigenvalues --    2.32550   2.33265   2.35050   2.37667   2.38564
 Alpha virt. eigenvalues --    2.40450   2.42906   2.43058   2.44584   2.44648
 Alpha virt. eigenvalues --    2.46125   2.47200   2.51568   2.51788   2.55133
 Alpha virt. eigenvalues --    2.55856   2.57994   2.60217   2.61387   2.63358
 Alpha virt. eigenvalues --    2.65733   2.67555   2.68844   2.70681   2.71856
 Alpha virt. eigenvalues --    2.72680   2.72783   2.75563   2.78796   2.79431
 Alpha virt. eigenvalues --    2.82075   2.82111   2.87302   2.89054   2.92540
 Alpha virt. eigenvalues --    2.92839   2.95547   2.99535   3.04103   3.04704
 Alpha virt. eigenvalues --    3.06548   3.06664   3.07435   3.08461   3.10368
 Alpha virt. eigenvalues --    3.12639   3.14083   3.16576   3.16748   3.18197
 Alpha virt. eigenvalues --    3.18278   3.20999   3.22062   3.24793   3.24920
 Alpha virt. eigenvalues --    3.25635   3.26576   3.28316   3.28836   3.31124
 Alpha virt. eigenvalues --    3.31298   3.33132   3.34973   3.35783   3.37597
 Alpha virt. eigenvalues --    3.38300   3.39100   3.39625   3.40538   3.43267
 Alpha virt. eigenvalues --    3.43670   3.46510   3.47199   3.47933   3.49594
 Alpha virt. eigenvalues --    3.49712   3.51310   3.51453   3.53118   3.54389
 Alpha virt. eigenvalues --    3.54549   3.55478   3.56857   3.58618   3.59594
 Alpha virt. eigenvalues --    3.59846   3.60356   3.61768   3.61908   3.63755
 Alpha virt. eigenvalues --    3.66062   3.66318   3.67309   3.68104   3.69986
 Alpha virt. eigenvalues --    3.71534   3.71884   3.73716   3.77780   3.79385
 Alpha virt. eigenvalues --    3.79918   3.80215   3.81615   3.82966   3.83590
 Alpha virt. eigenvalues --    3.84745   3.85219   3.85427   3.88535   3.89713
 Alpha virt. eigenvalues --    3.90373   3.92539   3.93612   3.93640   3.94243
 Alpha virt. eigenvalues --    3.96231   3.98341   3.99256   3.99954   4.01718
 Alpha virt. eigenvalues --    4.03797   4.04602   4.05968   4.06427   4.08696
 Alpha virt. eigenvalues --    4.12507   4.12783   4.14311   4.15786   4.16066
 Alpha virt. eigenvalues --    4.17710   4.18655   4.20606   4.22075   4.24502
 Alpha virt. eigenvalues --    4.25759   4.27779   4.29386   4.31171   4.31529
 Alpha virt. eigenvalues --    4.33114   4.33919   4.35913   4.36844   4.39079
 Alpha virt. eigenvalues --    4.40854   4.42568   4.44099   4.44449   4.45632
 Alpha virt. eigenvalues --    4.46358   4.47078   4.47982   4.49980   4.53045
 Alpha virt. eigenvalues --    4.54931   4.54989   4.56253   4.59712   4.61090
 Alpha virt. eigenvalues --    4.61280   4.61812   4.65463   4.68175   4.69576
 Alpha virt. eigenvalues --    4.71090   4.71350   4.73581   4.76100   4.76550
 Alpha virt. eigenvalues --    4.78707   4.78867   4.81242   4.81583   4.83118
 Alpha virt. eigenvalues --    4.84144   4.85023   4.85121   4.87525   4.91347
 Alpha virt. eigenvalues --    4.93351   4.95158   4.98871   5.00494   5.03007
 Alpha virt. eigenvalues --    5.05537   5.09020   5.09237   5.11492   5.14305
 Alpha virt. eigenvalues --    5.15857   5.17563   5.18347   5.20980   5.22822
 Alpha virt. eigenvalues --    5.25540   5.26696   5.29691   5.30176   5.33789
 Alpha virt. eigenvalues --    5.38834   5.40235   5.41500   5.42253   5.43836
 Alpha virt. eigenvalues --    5.48093   5.49706   5.51165   5.54720   5.54773
 Alpha virt. eigenvalues --    5.59967   5.60796   5.62917   5.68219   5.69537
 Alpha virt. eigenvalues --    5.71337   5.72110   5.73740   5.76172   5.80004
 Alpha virt. eigenvalues --    5.82877   5.87171   5.91879   6.00594   6.03417
 Alpha virt. eigenvalues --    6.06857   6.08873   6.11560   6.13855   6.21572
 Alpha virt. eigenvalues --    6.22548   6.26367   6.32233   6.36722   6.37996
 Alpha virt. eigenvalues --    6.39128   6.39509   6.42948   6.45215   6.47064
 Alpha virt. eigenvalues --    6.51612   6.53445   6.58726   6.60272   6.66200
 Alpha virt. eigenvalues --    6.70776   6.73271   6.75641   6.79014   6.79997
 Alpha virt. eigenvalues --    6.84338   6.84697   6.87033   6.88793   6.96058
 Alpha virt. eigenvalues --    6.96623   7.10466   7.15883   7.17474   7.24350
 Alpha virt. eigenvalues --    7.35245   7.40553   7.55708   7.67197   7.77542
 Alpha virt. eigenvalues --    7.92886   8.07691  15.39676  15.98671  16.93516
 Alpha virt. eigenvalues --   17.78191  18.52854  18.85095  19.35337  20.19361
 Alpha virt. eigenvalues --   20.95080  21.69212
          Condensed to atoms (all electrons):
               1          2          3          4          5          6
     1  C    6.090811   0.523994  -0.366930  -0.043340   0.028999  -0.256143
     2  N    0.523994  10.019096  -4.041589  -0.332094  -0.409007   0.346699
     3  N   -0.366930  -4.041589  13.695562   0.196648   0.185494  -1.414195
     4  C   -0.043340  -0.332094   0.196648   7.359280  -0.886466   0.196982
     5  C    0.028999  -0.409007   0.185494  -0.886466   8.521839  -1.763295
     6  C   -0.256143   0.346699  -1.414195   0.196982  -1.763295  10.552223
     7  C   -0.000035  -0.016291   0.090401  -0.501472   0.174581  -0.181844
     8  C   -0.029593   0.007882   0.194674   0.240810  -0.828022  -1.402646
     9  O   -0.032236  -0.140372  -0.033037  -0.019680   0.026851   0.259200
    10  O   -0.011300   0.018993   0.010660   0.021943  -0.027042  -0.167129
    11  H    0.405449   0.071158  -0.054690  -0.007518   0.011816  -0.030413
    12  H    0.405160   0.070982  -0.054582  -0.007476   0.011814  -0.030628
    13  H    0.295094  -0.131391   0.062771   0.015915  -0.030903   0.004935
    14  H   -0.006364   0.034664  -0.215194   0.273606  -0.122068  -0.007092
    15  H   -0.001362   0.026670  -0.030516  -0.023790  -0.088284   0.074692
    16  H    0.001619  -0.001144   0.021034  -0.019442  -0.084219  -0.073662
    17  H    0.001622  -0.001116   0.021100  -0.019474  -0.084119  -0.074100
    18  H   -0.002536   0.013073  -0.000489   0.002539   0.017276  -0.075840
               7          8          9         10         11         12
     1  C   -0.000035  -0.029593  -0.032236  -0.011300   0.405449   0.405160
     2  N   -0.016291   0.007882  -0.140372   0.018993   0.071158   0.070982
     3  N    0.090401   0.194674  -0.033037   0.010660  -0.054690  -0.054582
     4  C   -0.501472   0.240810  -0.019680   0.021943  -0.007518  -0.007476
     5  C    0.174581  -0.828022   0.026851  -0.027042   0.011816   0.011814
     6  C   -0.181844  -1.402646   0.259200  -0.167129  -0.030413  -0.030628
     7  C    6.268413  -0.186568   0.019515   0.018397  -0.000020  -0.000010
     8  C   -0.186568   7.785479  -0.288862   0.139204  -0.041200  -0.040940
     9  O    0.019515  -0.288862   9.456801  -0.183069  -0.020937  -0.020780
    10  O    0.018397   0.139204  -0.183069   8.556859  -0.000608  -0.000603
    11  H   -0.000020  -0.041200  -0.020937  -0.000608   0.344381   0.034768
    12  H   -0.000010  -0.040940  -0.020780  -0.000603   0.034768   0.344157
    13  H    0.000759   0.028682   0.003589   0.000007  -0.016675  -0.016556
    14  H   -0.053217  -0.011764   0.000469  -0.001547  -0.000177  -0.000176
    15  H    0.455757   0.000193  -0.000969  -0.005974   0.000118   0.000119
    16  H    0.437398   0.010307   0.003167   0.000438  -0.000514   0.000534
    17  H    0.437535   0.010445   0.003157   0.000475   0.000534  -0.000513
    18  H   -0.015664   0.112004  -0.111161   0.163589   0.000836   0.000837
              13         14         15         16         17         18
     1  C    0.295094  -0.006364  -0.001362   0.001619   0.001622  -0.002536
     2  N   -0.131391   0.034664   0.026670  -0.001144  -0.001116   0.013073
     3  N    0.062771  -0.215194  -0.030516   0.021034   0.021100  -0.000489
     4  C    0.015915   0.273606  -0.023790  -0.019442  -0.019474   0.002539
     5  C   -0.030903  -0.122068  -0.088284  -0.084219  -0.084119   0.017276
     6  C    0.004935  -0.007092   0.074692  -0.073662  -0.074100  -0.075840
     7  C    0.000759  -0.053217   0.455757   0.437398   0.437535  -0.015664
     8  C    0.028682  -0.011764   0.000193   0.010307   0.010445   0.112004
     9  O    0.003589   0.000469  -0.000969   0.003167   0.003157  -0.111161
    10  O    0.000007  -0.001547  -0.005974   0.000438   0.000475   0.163589
    11  H   -0.016675  -0.000177   0.000118  -0.000514   0.000534   0.000836
    12  H   -0.016556  -0.000176   0.000119   0.000534  -0.000513   0.000837
    13  H    0.397039  -0.001170  -0.000194   0.000077   0.000079  -0.000137
    14  H   -0.001170   0.476696  -0.002575  -0.007227  -0.007246   0.000117
    15  H   -0.000194  -0.002575   0.694392  -0.073507  -0.073521   0.000733
    16  H    0.000077  -0.007227  -0.073507   0.536389  -0.005302  -0.003044
    17  H    0.000079  -0.007246  -0.073521  -0.005302   0.536532  -0.003051
    18  H   -0.000137   0.000117   0.000733  -0.003044  -0.003051   0.616067
 Mulliken charges:
               1
     1  C   -1.002908
     2  N    0.939795
     3  N   -1.267122
     4  C   -0.446974
     5  C    1.344753
     6  C    0.042254
     7  C   -0.947637
     8  C    0.299917
     9  O   -0.921646
    10  O   -0.533292
    11  H    0.303691
    12  H    0.303894
    13  H    0.388080
    14  H    0.650263
    15  H    0.048019
    16  H    0.257099
    17  H    0.256963
    18  H    0.284850
 Sum of Mulliken charges =   0.00000
 Mulliken charges with hydrogens summed into heavy atoms:
               1
     1  C   -0.007242
     2  N    0.939795
     3  N   -1.267122
     4  C    0.203290
     5  C    1.344753
     6  C    0.042254
     7  C   -0.385557
     8  C    0.299917
     9  O   -0.921646
    10  O   -0.248442
 Electronic spatial extent (au):  <R**2>=           1308.5448
 Charge=              0.0000 electrons
 Dipole moment (field-independent basis, Debye):
    X=              0.9026    Y=              0.3853    Z=             -0.0019  Tot=              0.9814
 Quadrupole moment (field-independent basis, Debye-Ang):
   XX=            -55.4526   YY=            -58.3202   ZZ=            -58.3229
   XY=              2.7151   XZ=              0.0023   YZ=              0.0044
 Traceless Quadrupole moment (field-independent basis, Debye-Ang):
   XX=              1.9127   YY=             -0.9550   ZZ=             -0.9577
   XY=              2.7151   XZ=              0.0023   YZ=              0.0044
 Octapole moment (field-independent basis, Debye-Ang**2):
  XXX=             35.4417  YYY=             15.0507  ZZZ=              0.0023  XYY=             -3.6400
  XXY=            -28.1750  XXZ=             -0.0099  XZZ=              3.6845  YZZ=             -7.0520
  YYZ=             -0.0143  XYZ=              0.0007
 Hexadecapole moment (field-independent basis, Debye-Ang**3):
 XXXX=           -762.9772 YYYY=           -823.6340 ZZZZ=            -72.2902 XXXY=            -32.9110
 XXXZ=              0.0335 YYYX=             -5.6915 YYYZ=              0.0206 ZZZX=             -0.0072
 ZZZY=             -0.0058 XXYY=           -237.4637 XXZZ=           -148.4857 YYZZ=           -149.4884
 XXYZ=              0.0132 YYXZ=             -0.0060 ZZXY=              1.1673
 N-N= 5.493183325271D+02 E-N=-2.251140419990D+03  KE= 4.918097660758D+02
 ******************************Gaussian NBO Version 3.1******************************
             N A T U R A L   A T O M I C   O R B I T A L   A N D
          N A T U R A L   B O N D   O R B I T A L   A N A L Y S I S
 ******************************Gaussian NBO Version 3.1******************************
       /RESON  / : Allow strongly delocalized NBO set

 Analyzing the SCF density

 Job title: 9                                                               

 Storage needed:   1246904 in NPA,   1661246 in NBO (********** available)
 GSVD:  LWork=       18694 too small for GESVD, short by      769403 words or      769403 for optimal perf.


 NATURAL POPULATIONS:  Natural atomic orbital occupancies 
                                                          
   NAO  Atom  No  lang   Type(AO)    Occupancy      Energy
 ----------------------------------------------------------
     1    C    1  S      Cor( 1S)     1.99942     -10.45959
     2    C    1  S      Val( 2S)     1.10277      -0.32554
     3    C    1  S      Ryd( 3S)     0.00082       1.17521
     4    C    1  S      Ryd( 4S)     0.00006       2.00951
     5    C    1  S      Ryd( 5S)     0.00003       4.09469
     6    C    1  px     Val( 2p)     1.15105      -0.13260
     7    C    1  px     Ryd( 3p)     0.00161       1.23670
     8    C    1  px     Ryd( 5p)     0.00015       1.80849
     9    C    1  px     Ryd( 4p)     0.00001       1.63712
    10    C    1  py     Val( 2p)     0.89796      -0.09272
    11    C    1  py     Ryd( 3p)     0.00185       1.17175
    12    C    1  py     Ryd( 5p)     0.00011       1.56122
    13    C    1  py     Ryd( 4p)     0.00001       1.20027
    14    C    1  pz     Val( 2p)     1.21921      -0.14482
    15    C    1  pz     Ryd( 4p)     0.00065       1.11747
    16    C    1  pz     Ryd( 5p)     0.00009       1.76965
    17    C    1  pz     Ryd( 3p)     0.00001       1.04794
    18    C    1  dxy    Ryd( 4d)     0.00086       1.93218
    19    C    1  dxy    Ryd( 5d)     0.00008       3.49226
    20    C    1  dxy    Ryd( 3d)     0.00003       1.61215
    21    C    1  dxz    Ryd( 4d)     0.00088       1.54285
    22    C    1  dxz    Ryd( 5d)     0.00001       3.16000
    23    C    1  dxz    Ryd( 3d)     0.00001       1.31975
    24    C    1  dyz    Ryd( 4d)     0.00194       1.59349
    25    C    1  dyz    Ryd( 5d)     0.00005       3.43293
    26    C    1  dyz    Ryd( 3d)     0.00002       1.31329
    27    C    1  dx2y2  Ryd( 4d)     0.00133       1.95937
    28    C    1  dx2y2  Ryd( 5d)     0.00007       3.68355
    29    C    1  dx2y2  Ryd( 3d)     0.00002       1.37062
    30    C    1  dz2    Ryd( 4d)     0.00200       1.81795
    31    C    1  dz2    Ryd( 5d)     0.00005       3.55756
    32    C    1  dz2    Ryd( 3d)     0.00002       1.78684
    33    C    1  f(0)   Ryd( 5f)     0.00001       3.92712
    34    C    1  f(0)   Ryd( 4f)     0.00002       2.17913
    35    C    1  f(C1)  Ryd( 5f)     0.00007       3.99626
    36    C    1  f(C1)  Ryd( 4f)     0.00005       3.23864
    37    C    1  f(S1)  Ryd( 5f)     0.00013       4.33075
    38    C    1  f(S1)  Ryd( 4f)     0.00003       3.53219
    39    C    1  f(C2)  Ryd( 5f)     0.00004       3.97360
    40    C    1  f(C2)  Ryd( 4f)     0.00002       2.30439
    41    C    1  f(S2)  Ryd( 5f)     0.00001       3.90028
    42    C    1  f(S2)  Ryd( 4f)     0.00004       2.48010
    43    C    1  f(C3)  Ryd( 5f)     0.00007       4.28237
    44    C    1  f(C3)  Ryd( 4f)     0.00004       2.77746
    45    C    1  f(S3)  Ryd( 5f)     0.00003       4.19170
    46    C    1  f(S3)  Ryd( 4f)     0.00003       2.52832
 
    47    N    2  S      Cor( 1S)     1.99925     -14.65055
    48    N    2  S      Val( 2S)     1.11515      -0.51692
    49    N    2  S      Ryd( 3S)     0.00319       1.70562
    50    N    2  S      Ryd( 5S)     0.00005       7.13314
    51    N    2  S      Ryd( 4S)     0.00002       4.90835
    52    N    2  px     Val( 2p)     1.24060      -0.28349
    53    N    2  px     Ryd( 4p)     0.00527       2.17931
    54    N    2  px     Ryd( 5p)     0.00027       4.30000
    55    N    2  px     Ryd( 3p)     0.00005       1.69702
    56    N    2  py     Val( 2p)     1.22985      -0.28299
    57    N    2  py     Ryd( 4p)     0.00392       2.24155
    58    N    2  py     Ryd( 5p)     0.00011       4.94535
    59    N    2  py     Ryd( 3p)     0.00003       1.45859
    60    N    2  pz     Val( 2p)     1.46980      -0.31816
    61    N    2  pz     Ryd( 4p)     0.00433       0.94659
    62    N    2  pz     Ryd( 5p)     0.00005       3.16950
    63    N    2  pz     Ryd( 3p)     0.00005       0.91282
    64    N    2  dxy    Ryd( 3d)     0.00045       3.96328
    65    N    2  dxy    Ryd( 4d)     0.00089       4.59985
    66    N    2  dxy    Ryd( 5d)     0.00009       5.06210
    67    N    2  dxz    Ryd( 3d)     0.00080       1.78826
    68    N    2  dxz    Ryd( 4d)     0.00025       3.29556
    69    N    2  dxz    Ryd( 5d)     0.00006       3.54960
    70    N    2  dyz    Ryd( 3d)     0.00073       1.97952
    71    N    2  dyz    Ryd( 4d)     0.00021       3.40228
    72    N    2  dyz    Ryd( 5d)     0.00004       3.62989
    73    N    2  dx2y2  Ryd( 4d)     0.00288       4.64830
    74    N    2  dx2y2  Ryd( 3d)     0.00034       4.31937
    75    N    2  dx2y2  Ryd( 5d)     0.00006       4.66082
    76    N    2  dz2    Ryd( 3d)     0.00195       2.44445
    77    N    2  dz2    Ryd( 4d)     0.00036       3.69957
    78    N    2  dz2    Ryd( 5d)     0.00008       5.35605
    79    N    2  f(0)   Ryd( 4f)     0.00115       1.75243
    80    N    2  f(0)   Ryd( 5f)     0.00017       4.90626
    81    N    2  f(C1)  Ryd( 4f)     0.00081       2.12802
    82    N    2  f(C1)  Ryd( 5f)     0.00010       4.96442
    83    N    2  f(S1)  Ryd( 4f)     0.00137       2.33935
    84    N    2  f(S1)  Ryd( 5f)     0.00012       4.95456
    85    N    2  f(C2)  Ryd( 4f)     0.00038       1.68484
    86    N    2  f(C2)  Ryd( 5f)     0.00003       4.97232
    87    N    2  f(S2)  Ryd( 4f)     0.00089       1.66683
    88    N    2  f(S2)  Ryd( 5f)     0.00007       4.97834
    89    N    2  f(C3)  Ryd( 4f)     0.00062       3.17696
    90    N    2  f(C3)  Ryd( 5f)     0.00016       5.46013
    91    N    2  f(S3)  Ryd( 4f)     0.00147       2.29227
    92    N    2  f(S3)  Ryd( 5f)     0.00019       5.59339
 
    93    N    3  S      Cor( 1S)     1.99937     -14.55278
    94    N    3  S      Val( 2S)     1.32965      -0.54142
    95    N    3  S      Ryd( 4S)     0.00260       3.25544
    96    N    3  S      Ryd( 3S)     0.00006       1.93806
    97    N    3  S      Ryd( 5S)     0.00001       9.41346
    98    N    3  px     Val( 2p)     1.61948      -0.27808
    99    N    3  px     Ryd( 3p)     0.00527       1.64544
   100    N    3  px     Ryd( 5p)     0.00011       2.89126
   101    N    3  px     Ryd( 4p)     0.00006       2.75650
   102    N    3  py     Val( 2p)     1.04405      -0.13730
   103    N    3  py     Ryd( 5p)     0.00449       2.34386
   104    N    3  py     Ryd( 3p)     0.00009       1.78340
   105    N    3  py     Ryd( 4p)     0.00005       2.12907
   106    N    3  pz     Val( 2p)     1.18139      -0.20947
   107    N    3  pz     Ryd( 3p)     0.00188       1.32437
   108    N    3  pz     Ryd( 5p)     0.00004       1.84126
   109    N    3  pz     Ryd( 4p)     0.00001       1.67986
   110    N    3  dxy    Ryd( 3d)     0.00677       2.79489
   111    N    3  dxy    Ryd( 5d)     0.00020       4.31627
   112    N    3  dxy    Ryd( 4d)     0.00012       3.51748
   113    N    3  dxz    Ryd( 3d)     0.00431       1.48706
   114    N    3  dxz    Ryd( 5d)     0.00003       3.62305
   115    N    3  dxz    Ryd( 4d)     0.00006       2.41754
   116    N    3  dyz    Ryd( 3d)     0.00041       1.65906
   117    N    3  dyz    Ryd( 5d)     0.00017       3.71194
   118    N    3  dyz    Ryd( 4d)     0.00003       2.48898
   119    N    3  dx2y2  Ryd( 3d)     0.00268       2.18747
   120    N    3  dx2y2  Ryd( 5d)     0.00030       3.94437
   121    N    3  dx2y2  Ryd( 4d)     0.00020       3.21838
   122    N    3  dz2    Ryd( 3d)     0.00696       1.81167
   123    N    3  dz2    Ryd( 5d)     0.00003       4.18747
   124    N    3  dz2    Ryd( 4d)     0.00008       3.45670
   125    N    3  f(0)   Ryd( 5f)     0.00011       4.90113
   126    N    3  f(0)   Ryd( 4f)     0.00004       2.30189
   127    N    3  f(C1)  Ryd( 5f)     0.00007       4.90594
   128    N    3  f(C1)  Ryd( 4f)     0.00006       3.44558
   129    N    3  f(S1)  Ryd( 5f)     0.00013       5.14136
   130    N    3  f(S1)  Ryd( 4f)     0.00004       3.48530
   131    N    3  f(C2)  Ryd( 5f)     0.00004       4.87314
   132    N    3  f(C2)  Ryd( 4f)     0.00003       2.61562
   133    N    3  f(S2)  Ryd( 5f)     0.00002       4.98397
   134    N    3  f(S2)  Ryd( 4f)     0.00005       2.48735
   135    N    3  f(C3)  Ryd( 5f)     0.00017       5.44300
   136    N    3  f(C3)  Ryd( 4f)     0.00008       4.22446
   137    N    3  f(S3)  Ryd( 5f)     0.00002       5.48984
   138    N    3  f(S3)  Ryd( 4f)     0.00018       3.74993
 
   139    C    4  S      Cor( 1S)     1.99905     -10.38505
   140    C    4  S      Val( 2S)     0.90884      -0.14370
   141    C    4  S      Ryd( 4S)     0.00252       2.04662
   142    C    4  S      Ryd( 5S)     0.00008       2.41718
   143    C    4  S      Ryd( 3S)     0.00002       1.67900
   144    C    4  px     Val( 2p)     0.98094      -0.05096
   145    C    4  px     Ryd( 5p)     0.00745       1.64725
   146    C    4  px     Ryd( 4p)     0.00006       1.33421
   147    C    4  px     Ryd( 3p)     0.00002       1.17592
   148    C    4  py     Val( 2p)     1.10363      -0.06968
   149    C    4  py     Ryd( 5p)     0.00460       1.95327
   150    C    4  py     Ryd( 3p)     0.00009       1.46132
   151    C    4  py     Ryd( 4p)     0.00005       1.57094
   152    C    4  pz     Val( 2p)     1.05265      -0.12214
   153    C    4  pz     Ryd( 5p)     0.00162       1.15445
   154    C    4  pz     Ryd( 4p)     0.00006       1.04160
   155    C    4  pz     Ryd( 3p)     0.00002       0.91542
   156    C    4  dxy    Ryd( 4d)     0.00121       2.69934
   157    C    4  dxy    Ryd( 5d)     0.00057       3.99832
   158    C    4  dxy    Ryd( 3d)     0.00004       2.51932
   159    C    4  dxz    Ryd( 3d)     0.00102       1.38560
   160    C    4  dxz    Ryd( 5d)     0.00005       2.88848
   161    C    4  dxz    Ryd( 4d)     0.00004       2.05395
   162    C    4  dyz    Ryd( 3d)     0.00046       1.54740
   163    C    4  dyz    Ryd( 5d)     0.00018       2.95952
   164    C    4  dyz    Ryd( 4d)     0.00003       1.66566
   165    C    4  dx2y2  Ryd( 3d)     0.00292       2.26808
   166    C    4  dx2y2  Ryd( 5d)     0.00013       3.48581
   167    C    4  dx2y2  Ryd( 4d)     0.00004       2.68996
   168    C    4  dz2    Ryd( 3d)     0.00114       2.05898
   169    C    4  dz2    Ryd( 5d)     0.00006       3.88631
   170    C    4  dz2    Ryd( 4d)     0.00004       3.54420
   171    C    4  f(0)   Ryd( 5f)     0.00013       3.57592
   172    C    4  f(0)   Ryd( 4f)     0.00005       2.11729
   173    C    4  f(C1)  Ryd( 5f)     0.00017       3.74719
   174    C    4  f(C1)  Ryd( 4f)     0.00004       2.88510
   175    C    4  f(S1)  Ryd( 5f)     0.00014       3.82921
   176    C    4  f(S1)  Ryd( 4f)     0.00005       3.28575
   177    C    4  f(C2)  Ryd( 5f)     0.00001       3.66784
   178    C    4  f(C2)  Ryd( 4f)     0.00004       2.27296
   179    C    4  f(S2)  Ryd( 5f)     0.00001       3.69462
   180    C    4  f(S2)  Ryd( 4f)     0.00002       2.24775
   181    C    4  f(C3)  Ryd( 4f)     0.00010       4.52441
   182    C    4  f(C3)  Ryd( 5f)     0.00008       4.77438
   183    C    4  f(S3)  Ryd( 4f)     0.00013       4.51277
   184    C    4  f(S3)  Ryd( 5f)     0.00004       4.59441
 
   185    C    5  S      Cor( 1S)     1.99897     -10.37537
   186    C    5  S      Val( 2S)     0.89055      -0.14077
   187    C    5  S      Ryd( 3S)     0.00127       1.76526
   188    C    5  S      Ryd( 4S)     0.00015       2.36376
   189    C    5  S      Ryd( 5S)     0.00002       2.93620
   190    C    5  px     Val( 2p)     1.07745      -0.07202
   191    C    5  px     Ryd( 4p)     0.00381       2.27619
   192    C    5  px     Ryd( 5p)     0.00010       2.35563
   193    C    5  px     Ryd( 3p)     0.00003       1.22554
   194    C    5  py     Val( 2p)     1.02389      -0.04572
   195    C    5  py     Ryd( 4p)     0.00306       1.94332
   196    C    5  py     Ryd( 5p)     0.00010       2.13634
   197    C    5  py     Ryd( 3p)     0.00002       1.23379
   198    C    5  pz     Val( 2p)     1.03056      -0.11444
   199    C    5  pz     Ryd( 4p)     0.00219       1.02619
   200    C    5  pz     Ryd( 5p)     0.00004       1.48662
   201    C    5  pz     Ryd( 3p)     0.00002       0.80009
   202    C    5  dxy    Ryd( 3d)     0.00101       2.79546
   203    C    5  dxy    Ryd( 4d)     0.00026       3.72408
   204    C    5  dxy    Ryd( 5d)     0.00010       4.11051
   205    C    5  dxz    Ryd( 3d)     0.00120       1.63380
   206    C    5  dxz    Ryd( 5d)     0.00009       2.87939
   207    C    5  dxz    Ryd( 4d)     0.00003       2.60067
   208    C    5  dyz    Ryd( 3d)     0.00065       1.33690
   209    C    5  dyz    Ryd( 5d)     0.00024       2.82911
   210    C    5  dyz    Ryd( 4d)     0.00012       2.53270
   211    C    5  dx2y2  Ryd( 3d)     0.00110       3.36710
   212    C    5  dx2y2  Ryd( 4d)     0.00042       3.71768
   213    C    5  dx2y2  Ryd( 5d)     0.00007       4.49546
   214    C    5  dz2    Ryd( 3d)     0.00127       1.82515
   215    C    5  dz2    Ryd( 4d)     0.00015       3.77861
   216    C    5  dz2    Ryd( 5d)     0.00007       4.66729
   217    C    5  f(0)   Ryd( 4f)     0.00053       1.53860
   218    C    5  f(0)   Ryd( 5f)     0.00011       3.56391
   219    C    5  f(C1)  Ryd( 4f)     0.00121       1.91314
   220    C    5  f(C1)  Ryd( 5f)     0.00015       3.68638
   221    C    5  f(S1)  Ryd( 4f)     0.00068       1.80303
   222    C    5  f(S1)  Ryd( 5f)     0.00012       3.67754
   223    C    5  f(C2)  Ryd( 4f)     0.00035       1.36619
   224    C    5  f(C2)  Ryd( 5f)     0.00002       3.65626
   225    C    5  f(S2)  Ryd( 4f)     0.00101       1.44804
   226    C    5  f(S2)  Ryd( 5f)     0.00004       3.64892
   227    C    5  f(C3)  Ryd( 4f)     0.00173       2.34114
   228    C    5  f(C3)  Ryd( 5f)     0.00011       4.48997
   229    C    5  f(S3)  Ryd( 4f)     0.00076       2.77417
   230    C    5  f(S3)  Ryd( 5f)     0.00011       4.30164
 
   231    C    6  S      Cor( 1S)     1.99866     -10.39618
   232    C    6  S      Val( 2S)     0.82938      -0.05609
   233    C    6  S      Ryd( 4S)     0.00102       2.07507
   234    C    6  S      Ryd( 5S)     0.00007       2.69560
   235    C    6  S      Ryd( 3S)     0.00001       1.57345
   236    C    6  px     Val( 2p)     0.97467      -0.05939
   237    C    6  px     Ryd( 4p)     0.00442       2.32514
   238    C    6  px     Ryd( 5p)     0.00077       2.49873
   239    C    6  px     Ryd( 3p)     0.00006       0.95633
   240    C    6  py     Val( 2p)     1.11805      -0.11974
   241    C    6  py     Ryd( 4p)     0.00459       2.55106
   242    C    6  py     Ryd( 5p)     0.00051       2.83274
   243    C    6  py     Ryd( 3p)     0.00004       0.98444
   244    C    6  pz     Val( 2p)     1.13025      -0.14746
   245    C    6  pz     Ryd( 4p)     0.00208       1.02385
   246    C    6  pz     Ryd( 5p)     0.00014       1.17235
   247    C    6  pz     Ryd( 3p)     0.00005       0.72808
   248    C    6  dxy    Ryd( 4d)     0.00082       3.43704
   249    C    6  dxy    Ryd( 3d)     0.00017       3.00479
   250    C    6  dxy    Ryd( 5d)     0.00007       5.10327
   251    C    6  dxz    Ryd( 3d)     0.00038       2.14507
   252    C    6  dxz    Ryd( 4d)     0.00030       2.20925
   253    C    6  dxz    Ryd( 5d)     0.00008       2.77295
   254    C    6  dyz    Ryd( 3d)     0.00051       2.14805
   255    C    6  dyz    Ryd( 4d)     0.00003       2.20815
   256    C    6  dyz    Ryd( 5d)     0.00006       2.82925
   257    C    6  dx2y2  Ryd( 4d)     0.00061       3.60935
   258    C    6  dx2y2  Ryd( 3d)     0.00054       3.29452
   259    C    6  dx2y2  Ryd( 5d)     0.00009       6.22056
   260    C    6  dz2    Ryd( 4d)     0.00063       2.66289
   261    C    6  dz2    Ryd( 3d)     0.00043       2.61696
   262    C    6  dz2    Ryd( 5d)     0.00003       5.25835
   263    C    6  f(0)   Ryd( 4f)     0.00078       1.51816
   264    C    6  f(0)   Ryd( 5f)     0.00015       3.61009
   265    C    6  f(C1)  Ryd( 4f)     0.00052       2.10375
   266    C    6  f(C1)  Ryd( 5f)     0.00013       3.97788
   267    C    6  f(S1)  Ryd( 4f)     0.00105       2.09531
   268    C    6  f(S1)  Ryd( 5f)     0.00011       4.00607
   269    C    6  f(C2)  Ryd( 4f)     0.00119       1.43562
   270    C    6  f(C2)  Ryd( 5f)     0.00004       3.66289
   271    C    6  f(S2)  Ryd( 4f)     0.00052       1.42891
   272    C    6  f(S2)  Ryd( 5f)     0.00001       3.56657
   273    C    6  f(C3)  Ryd( 4f)     0.00119       2.92130
   274    C    6  f(C3)  Ryd( 5f)     0.00014       4.48432
   275    C    6  f(S3)  Ryd( 4f)     0.00190       2.89116
   276    C    6  f(S3)  Ryd( 5f)     0.00015       4.55754
 
   277    C    7  S      Cor( 1S)     1.99947     -10.40177
   278    C    7  S      Val( 2S)     1.10031      -0.29905
   279    C    7  S      Ryd( 3S)     0.00086       1.29984
   280    C    7  S      Ryd( 5S)     0.00010       5.99692
   281    C    7  S      Ryd( 4S)     0.00002       1.35275
   282    C    7  px     Val( 2p)     1.11748      -0.10433
   283    C    7  px     Ryd( 3p)     0.00120       1.29876
   284    C    7  px     Ryd( 5p)     0.00006       1.57498
   285    C    7  px     Ryd( 4p)     0.00001       1.37031
   286    C    7  py     Val( 2p)     1.16042      -0.10885
   287    C    7  py     Ryd( 3p)     0.00135       1.32700
   288    C    7  py     Ryd( 5p)     0.00007       1.80725
   289    C    7  py     Ryd( 4p)     0.00002       1.54326
   290    C    7  pz     Val( 2p)     1.21937      -0.12027
   291    C    7  pz     Ryd( 4p)     0.00047       1.22059
   292    C    7  pz     Ryd( 5p)     0.00003       1.57124
   293    C    7  pz     Ryd( 3p)     0.00001       1.20753
   294    C    7  dxy    Ryd( 4d)     0.00151       1.93455
   295    C    7  dxy    Ryd( 5d)     0.00007       3.52289
   296    C    7  dxy    Ryd( 3d)     0.00002       1.13884
   297    C    7  dxz    Ryd( 4d)     0.00180       1.67420
   298    C    7  dxz    Ryd( 5d)     0.00004       3.54181
   299    C    7  dxz    Ryd( 3d)     0.00002       1.30527
   300    C    7  dyz    Ryd( 4d)     0.00042       1.55446
   301    C    7  dyz    Ryd( 5d)     0.00000       3.24544
   302    C    7  dyz    Ryd( 3d)     0.00001       1.19975
   303    C    7  dx2y2  Ryd( 4d)     0.00090       1.89975
   304    C    7  dx2y2  Ryd( 5d)     0.00003       3.49958
   305    C    7  dx2y2  Ryd( 3d)     0.00003       1.40171
   306    C    7  dz2    Ryd( 4d)     0.00190       1.84272
   307    C    7  dz2    Ryd( 5d)     0.00005       3.64531
   308    C    7  dz2    Ryd( 3d)     0.00003       1.47383
   309    C    7  f(0)   Ryd( 5f)     0.00000       3.80664
   310    C    7  f(0)   Ryd( 4f)     0.00002       2.15998
   311    C    7  f(C1)  Ryd( 5f)     0.00015       4.14721
   312    C    7  f(C1)  Ryd( 4f)     0.00003       3.57604
   313    C    7  f(S1)  Ryd( 5f)     0.00005       3.91398
   314    C    7  f(S1)  Ryd( 4f)     0.00003       3.50357
   315    C    7  f(C2)  Ryd( 5f)     0.00003       3.83733
   316    C    7  f(C2)  Ryd( 4f)     0.00002       2.53397
   317    C    7  f(S2)  Ryd( 5f)     0.00000       3.75407
   318    C    7  f(S2)  Ryd( 4f)     0.00002       2.32627
   319    C    7  f(C3)  Ryd( 5f)     0.00003       3.96164
   320    C    7  f(C3)  Ryd( 4f)     0.00004       2.71448
   321    C    7  f(S3)  Ryd( 5f)     0.00007       3.94303
   322    C    7  f(S3)  Ryd( 4f)     0.00002       3.23271
 
   323    C    8  S      Cor( 1S)     1.99912     -10.54964
   324    C    8  S      Val( 2S)     0.77748      -0.11496
   325    C    8  S      Ryd( 4S)     0.00452       1.92187
   326    C    8  S      Ryd( 5S)     0.00015       2.00464
   327    C    8  S      Ryd( 3S)     0.00002       1.76117
   328    C    8  px     Val( 2p)     0.81322      -0.05005
   329    C    8  px     Ryd( 5p)     0.00489       1.69023
   330    C    8  px     Ryd( 3p)     0.00019       1.31397
   331    C    8  px     Ryd( 4p)     0.00001       1.50517
   332    C    8  py     Val( 2p)     0.82632      -0.02819
   333    C    8  py     Ryd( 4p)     0.01216       1.61304
   334    C    8  py     Ryd( 3p)     0.00020       1.30320
   335    C    8  py     Ryd( 5p)     0.00002       1.73870
   336    C    8  pz     Val( 2p)     0.76777      -0.13221
   337    C    8  pz     Ryd( 5p)     0.00041       1.18761
   338    C    8  pz     Ryd( 3p)     0.00021       0.79335
   339    C    8  pz     Ryd( 4p)     0.00002       1.02879
   340    C    8  dxy    Ryd( 4d)     0.00270       3.16518
   341    C    8  dxy    Ryd( 3d)     0.00021       2.07830
   342    C    8  dxy    Ryd( 5d)     0.00003       4.09455
   343    C    8  dxz    Ryd( 4d)     0.00140       2.38315
   344    C    8  dxz    Ryd( 3d)     0.00007       1.55198
   345    C    8  dxz    Ryd( 5d)     0.00004       2.88009
   346    C    8  dyz    Ryd( 4d)     0.00131       2.50498
   347    C    8  dyz    Ryd( 3d)     0.00010       1.63848
   348    C    8  dyz    Ryd( 5d)     0.00006       2.87986
   349    C    8  dx2y2  Ryd( 4d)     0.00054       3.39056
   350    C    8  dx2y2  Ryd( 3d)     0.00027       2.28229
   351    C    8  dx2y2  Ryd( 5d)     0.00009       4.19934
   352    C    8  dz2    Ryd( 4d)     0.00035       3.07687
   353    C    8  dz2    Ryd( 3d)     0.00030       2.69188
   354    C    8  dz2    Ryd( 5d)     0.00004       3.54585
   355    C    8  f(0)   Ryd( 5f)     0.00012       3.73809
   356    C    8  f(0)   Ryd( 4f)     0.00004       2.22087
   357    C    8  f(C1)  Ryd( 5f)     0.00008       3.82055
   358    C    8  f(C1)  Ryd( 4f)     0.00003       2.95686
   359    C    8  f(S1)  Ryd( 5f)     0.00009       3.85136
   360    C    8  f(S1)  Ryd( 4f)     0.00004       3.57027
   361    C    8  f(C2)  Ryd( 5f)     0.00003       3.79038
   362    C    8  f(C2)  Ryd( 4f)     0.00002       2.79561
   363    C    8  f(S2)  Ryd( 5f)     0.00001       3.66938
   364    C    8  f(S2)  Ryd( 4f)     0.00003       2.57226
   365    C    8  f(C3)  Ryd( 4f)     0.00007       4.82786
   366    C    8  f(C3)  Ryd( 5f)     0.00002       5.50883
   367    C    8  f(S3)  Ryd( 4f)     0.00008       4.97991
   368    C    8  f(S3)  Ryd( 5f)     0.00001       6.64834
 
   369    O    9  S      Cor( 1S)     1.99979     -19.33152
   370    O    9  S      Val( 2S)     1.70879      -1.00366
   371    O    9  S      Ryd( 4S)     0.00025       2.57955
   372    O    9  S      Ryd( 3S)     0.00013       1.95466
   373    O    9  S      Ryd( 5S)     0.00002       9.21320
   374    O    9  px     Val( 2p)     1.86356      -0.34668
   375    O    9  px     Ryd( 4p)     0.00207       1.28040
   376    O    9  px     Ryd( 3p)     0.00009       0.73683
   377    O    9  px     Ryd( 5p)     0.00001       4.60619
   378    O    9  py     Val( 2p)     1.54173      -0.33352
   379    O    9  py     Ryd( 4p)     0.00051       1.67093
   380    O    9  py     Ryd( 3p)     0.00010       0.74974
   381    O    9  py     Ryd( 5p)     0.00008       5.50767
   382    O    9  pz     Val( 2p)     1.47864      -0.29631
   383    O    9  pz     Ryd( 4p)     0.00082       1.07232
   384    O    9  pz     Ryd( 3p)     0.00006       0.59087
   385    O    9  pz     Ryd( 5p)     0.00001       4.17801
   386    O    9  dxy    Ryd( 3d)     0.00575       1.83153
   387    O    9  dxy    Ryd( 4d)     0.00008       2.44317
   388    O    9  dxy    Ryd( 5d)     0.00004       6.29703
   389    O    9  dxz    Ryd( 3d)     0.00026       1.39776
   390    O    9  dxz    Ryd( 4d)     0.00003       1.96423
   391    O    9  dxz    Ryd( 5d)     0.00000       6.32500
   392    O    9  dyz    Ryd( 3d)     0.00655       1.55830
   393    O    9  dyz    Ryd( 4d)     0.00003       2.04410
   394    O    9  dyz    Ryd( 5d)     0.00003       6.16571
   395    O    9  dx2y2  Ryd( 3d)     0.00810       2.11462
   396    O    9  dx2y2  Ryd( 4d)     0.00008       3.65892
   397    O    9  dx2y2  Ryd( 5d)     0.00003       6.47589
   398    O    9  dz2    Ryd( 3d)     0.00295       1.62282
   399    O    9  dz2    Ryd( 4d)     0.00007       2.68918
   400    O    9  dz2    Ryd( 5d)     0.00001       6.31939
   401    O    9  f(0)   Ryd( 4f)     0.00014       3.09952
   402    O    9  f(0)   Ryd( 5f)     0.00001       5.60457
   403    O    9  f(C1)  Ryd( 4f)     0.00003       3.07599
   404    O    9  f(C1)  Ryd( 5f)     0.00001       5.64973
   405    O    9  f(S1)  Ryd( 4f)     0.00015       3.92315
   406    O    9  f(S1)  Ryd( 5f)     0.00001       5.94124
   407    O    9  f(C2)  Ryd( 4f)     0.00029       3.15701
   408    O    9  f(C2)  Ryd( 5f)     0.00001       5.72175
   409    O    9  f(S2)  Ryd( 4f)     0.00004       3.04588
   410    O    9  f(S2)  Ryd( 5f)     0.00000       5.80443
   411    O    9  f(C3)  Ryd( 4f)     0.00037       3.71851
   412    O    9  f(C3)  Ryd( 5f)     0.00004       6.07889
   413    O    9  f(S3)  Ryd( 4f)     0.00040       4.02507
   414    O    9  f(S3)  Ryd( 5f)     0.00002       6.16133
 
   415    O   10  S      Cor( 1S)     1.99978     -19.46431
   416    O   10  S      Val( 2S)     1.67114      -1.03342
   417    O   10  S      Ryd( 4S)     0.00026       1.77851
   418    O   10  S      Ryd( 3S)     0.00009       1.56438
   419    O   10  S      Ryd( 5S)     0.00001      10.24745
   420    O   10  px     Val( 2p)     1.42263      -0.36089
   421    O   10  px     Ryd( 3p)     0.00097       1.17218
   422    O   10  px     Ryd( 4p)     0.00008       1.19893
   423    O   10  px     Ryd( 5p)     0.00004       4.77484
   424    O   10  py     Val( 2p)     1.73597      -0.40545
   425    O   10  py     Ryd( 3p)     0.00072       1.18296
   426    O   10  py     Ryd( 4p)     0.00007       1.38223
   427    O   10  py     Ryd( 5p)     0.00007       4.41160
   428    O   10  pz     Val( 2p)     1.84908      -0.41645
   429    O   10  pz     Ryd( 4p)     0.00121       0.90925
   430    O   10  pz     Ryd( 3p)     0.00003       0.85221
   431    O   10  pz     Ryd( 5p)     0.00000       3.86905
   432    O   10  dxy    Ryd( 3d)     0.00483       1.89202
   433    O   10  dxy    Ryd( 4d)     0.00005       2.17983
   434    O   10  dxy    Ryd( 5d)     0.00007       7.00464
   435    O   10  dxz    Ryd( 3d)     0.00091       1.33677
   436    O   10  dxz    Ryd( 4d)     0.00006       1.79473
   437    O   10  dxz    Ryd( 5d)     0.00003       6.59124
   438    O   10  dyz    Ryd( 3d)     0.00381       1.18322
   439    O   10  dyz    Ryd( 4d)     0.00003       1.87583
   440    O   10  dyz    Ryd( 5d)     0.00001       6.54732
   441    O   10  dx2y2  Ryd( 3d)     0.00483       1.90199
   442    O   10  dx2y2  Ryd( 4d)     0.00010       2.63523
   443    O   10  dx2y2  Ryd( 5d)     0.00004       6.80224
   444    O   10  dz2    Ryd( 3d)     0.00301       1.51359
   445    O   10  dz2    Ryd( 4d)     0.00013       2.29483
   446    O   10  dz2    Ryd( 5d)     0.00001       6.80816
   447    O   10  f(0)   Ryd( 4f)     0.00051       2.78197
   448    O   10  f(0)   Ryd( 5f)     0.00001       5.94162
   449    O   10  f(C1)  Ryd( 4f)     0.00025       3.71808
   450    O   10  f(C1)  Ryd( 5f)     0.00001       6.20795
   451    O   10  f(S1)  Ryd( 4f)     0.00012       3.11526
   452    O   10  f(S1)  Ryd( 5f)     0.00001       6.17976
   453    O   10  f(C2)  Ryd( 4f)     0.00010       2.84724
   454    O   10  f(C2)  Ryd( 5f)     0.00001       6.00252
   455    O   10  f(S2)  Ryd( 4f)     0.00003       2.88435
   456    O   10  f(S2)  Ryd( 5f)     0.00000       6.09989
   457    O   10  f(C3)  Ryd( 4f)     0.00017       4.25902
   458    O   10  f(C3)  Ryd( 5f)     0.00004       6.54658
   459    O   10  f(S3)  Ryd( 4f)     0.00004       4.10573
   460    O   10  f(S3)  Ryd( 5f)     0.00004       6.50858
 
   461    H   11  S      Val( 1S)     0.77617       0.01914
   462    H   11  S      Ryd( 4S)     0.00024       1.88519
   463    H   11  S      Ryd( 2S)     0.00010       0.42130
   464    H   11  S      Ryd( 3S)     0.00002       1.40567
   465    H   11  px     Ryd( 2p)     0.00016       1.09767
   466    H   11  px     Ryd( 4p)     0.00006       3.81633
   467    H   11  px     Ryd( 3p)     0.00003       1.98951
   468    H   11  py     Ryd( 2p)     0.00042       1.03487
   469    H   11  py     Ryd( 4p)     0.00006       4.02837
   470    H   11  py     Ryd( 3p)     0.00003       2.39826
   471    H   11  pz     Ryd( 2p)     0.00067       1.11182
   472    H   11  pz     Ryd( 4p)     0.00009       4.04817
   473    H   11  pz     Ryd( 3p)     0.00002       3.26441
   474    H   11  dxy    Ryd( 3d)     0.00003       2.60349
   475    H   11  dxy    Ryd( 4d)     0.00001       3.02197
   476    H   11  dxz    Ryd( 3d)     0.00002       2.64648
   477    H   11  dxz    Ryd( 4d)     0.00001       3.25028
   478    H   11  dyz    Ryd( 3d)     0.00010       2.51953
   479    H   11  dyz    Ryd( 4d)     0.00001       3.77777
   480    H   11  dx2y2  Ryd( 3d)     0.00002       2.61880
   481    H   11  dx2y2  Ryd( 4d)     0.00001       3.07114
   482    H   11  dz2    Ryd( 3d)     0.00004       2.64306
   483    H   11  dz2    Ryd( 4d)     0.00002       3.60008
 
   484    H   12  S      Val( 1S)     0.77625       0.01909
   485    H   12  S      Ryd( 4S)     0.00024       1.88584
   486    H   12  S      Ryd( 2S)     0.00010       0.42061
   487    H   12  S      Ryd( 3S)     0.00002       1.40613
   488    H   12  px     Ryd( 2p)     0.00016       1.09666
   489    H   12  px     Ryd( 4p)     0.00006       3.81547
   490    H   12  px     Ryd( 3p)     0.00003       1.98706
   491    H   12  py     Ryd( 2p)     0.00042       1.03492
   492    H   12  py     Ryd( 4p)     0.00006       4.02871
   493    H   12  py     Ryd( 3p)     0.00003       2.39522
   494    H   12  pz     Ryd( 2p)     0.00067       1.11276
   495    H   12  pz     Ryd( 4p)     0.00010       4.05070
   496    H   12  pz     Ryd( 3p)     0.00002       3.26509
   497    H   12  dxy    Ryd( 3d)     0.00003       2.60202
   498    H   12  dxy    Ryd( 4d)     0.00001       3.02045
   499    H   12  dxz    Ryd( 3d)     0.00002       2.64403
   500    H   12  dxz    Ryd( 4d)     0.00001       3.25063
   501    H   12  dyz    Ryd( 3d)     0.00010       2.51909
   502    H   12  dyz    Ryd( 4d)     0.00001       3.78003
   503    H   12  dx2y2  Ryd( 3d)     0.00002       2.61733
   504    H   12  dx2y2  Ryd( 4d)     0.00001       3.07036
   505    H   12  dz2    Ryd( 3d)     0.00004       2.64272
   506    H   12  dz2    Ryd( 4d)     0.00002       3.60374
 
   507    H   13  S      Val( 1S)     0.77898       0.02034
   508    H   13  S      Ryd( 4S)     0.00037       1.87785
   509    H   13  S      Ryd( 2S)     0.00007       0.43212
   510    H   13  S      Ryd( 3S)     0.00002       1.50784
   511    H   13  px     Ryd( 2p)     0.00111       1.00271
   512    H   13  px     Ryd( 4p)     0.00015       4.02540
   513    H   13  px     Ryd( 3p)     0.00001       3.98443
   514    H   13  py     Ryd( 2p)     0.00075       0.92748
   515    H   13  py     Ryd( 4p)     0.00004       3.92940
   516    H   13  py     Ryd( 3p)     0.00003       2.06193
   517    H   13  pz     Ryd( 2p)     0.00018       0.66371
   518    H   13  pz     Ryd( 4p)     0.00002       3.82814
   519    H   13  pz     Ryd( 3p)     0.00002       1.91317
   520    H   13  dxy    Ryd( 3d)     0.00001       2.38785
   521    H   13  dxy    Ryd( 4d)     0.00002       3.85261
   522    H   13  dxz    Ryd( 3d)     0.00001       2.17107
   523    H   13  dxz    Ryd( 4d)     0.00002       3.75220
   524    H   13  dyz    Ryd( 3d)     0.00001       1.99858
   525    H   13  dyz    Ryd( 4d)     0.00001       3.10727
   526    H   13  dx2y2  Ryd( 3d)     0.00010       2.47403
   527    H   13  dx2y2  Ryd( 4d)     0.00002       4.27865
   528    H   13  dz2    Ryd( 3d)     0.00009       2.11330
   529    H   13  dz2    Ryd( 4d)     0.00001       3.44336
 
   530    H   14  S      Val( 1S)     0.79625       0.02679
   531    H   14  S      Ryd( 4S)     0.00029       1.86978
   532    H   14  S      Ryd( 2S)     0.00009       0.72034
   533    H   14  S      Ryd( 3S)     0.00002       1.64635
   534    H   14  px     Ryd( 2p)     0.00044       1.01127
   535    H   14  px     Ryd( 4p)     0.00003       4.08749
   536    H   14  px     Ryd( 3p)     0.00003       2.12972
   537    H   14  py     Ryd( 2p)     0.00052       1.03904
   538    H   14  py     Ryd( 4p)     0.00027       4.65188
   539    H   14  py     Ryd( 3p)     0.00002       3.65561
   540    H   14  pz     Ryd( 2p)     0.00080       0.71963
   541    H   14  pz     Ryd( 4p)     0.00003       3.89418
   542    H   14  pz     Ryd( 3p)     0.00001       1.68326
   543    H   14  dxy    Ryd( 3d)     0.00005       2.16006
   544    H   14  dxy    Ryd( 4d)     0.00003       4.36894
   545    H   14  dxz    Ryd( 3d)     0.00003       1.52842
   546    H   14  dxz    Ryd( 4d)     0.00000       3.45828
   547    H   14  dyz    Ryd( 3d)     0.00001       1.78484
   548    H   14  dyz    Ryd( 4d)     0.00002       3.94905
   549    H   14  dx2y2  Ryd( 3d)     0.00005       2.11770
   550    H   14  dx2y2  Ryd( 4d)     0.00002       4.34190
   551    H   14  dz2    Ryd( 3d)     0.00006       1.82970
   552    H   14  dz2    Ryd( 4d)     0.00004       3.78447
 
   553    H   15  S      Val( 1S)     0.78817       0.03374
   554    H   15  S      Ryd( 4S)     0.00042       1.81993
   555    H   15  S      Ryd( 2S)     0.00014       0.80346
   556    H   15  S      Ryd( 3S)     0.00002       1.23341
   557    H   15  px     Ryd( 2p)     0.00026       1.20654
   558    H   15  px     Ryd( 3p)     0.00007       2.22394
   559    H   15  px     Ryd( 4p)     0.00004       3.66548
   560    H   15  py     Ryd( 2p)     0.00091       1.30521
   561    H   15  py     Ryd( 4p)     0.00002       4.02928
   562    H   15  py     Ryd( 3p)     0.00006       3.86548
   563    H   15  pz     Ryd( 2p)     0.00005       0.99242
   564    H   15  pz     Ryd( 3p)     0.00004       1.99006
   565    H   15  pz     Ryd( 4p)     0.00002       3.62341
   566    H   15  dxy    Ryd( 3d)     0.00003       1.82452
   567    H   15  dxy    Ryd( 4d)     0.00001       4.34682
   568    H   15  dxz    Ryd( 3d)     0.00001       1.30178
   569    H   15  dxz    Ryd( 4d)     0.00001       3.83786
   570    H   15  dyz    Ryd( 3d)     0.00000       1.54830
   571    H   15  dyz    Ryd( 4d)     0.00002       4.21295
   572    H   15  dx2y2  Ryd( 3d)     0.00006       2.25486
   573    H   15  dx2y2  Ryd( 4d)     0.00005       4.29561
   574    H   15  dz2    Ryd( 3d)     0.00002       1.83704
   575    H   15  dz2    Ryd( 4d)     0.00003       3.95913
 
   576    H   16  S      Val( 1S)     0.77382       0.03986
   577    H   16  S      Ryd( 4S)     0.00037       1.74273
   578    H   16  S      Ryd( 2S)     0.00011       0.65456
   579    H   16  S      Ryd( 3S)     0.00003       1.27692
   580    H   16  px     Ryd( 2p)     0.00058       0.93854
   581    H   16  px     Ryd( 4p)     0.00007       4.02820
   582    H   16  px     Ryd( 3p)     0.00004       2.62778
   583    H   16  py     Ryd( 2p)     0.00024       0.98380
   584    H   16  py     Ryd( 4p)     0.00006       3.60311
   585    H   16  py     Ryd( 3p)     0.00005       2.29910
   586    H   16  pz     Ryd( 2p)     0.00052       1.04114
   587    H   16  pz     Ryd( 4p)     0.00007       4.43822
   588    H   16  pz     Ryd( 3p)     0.00004       3.07899
   589    H   16  dxy    Ryd( 3d)     0.00003       1.53997
   590    H   16  dxy    Ryd( 4d)     0.00001       4.03204
   591    H   16  dxz    Ryd( 3d)     0.00005       2.22996
   592    H   16  dxz    Ryd( 4d)     0.00005       4.31445
   593    H   16  dyz    Ryd( 3d)     0.00003       1.65569
   594    H   16  dyz    Ryd( 4d)     0.00001       4.13091
   595    H   16  dx2y2  Ryd( 3d)     0.00002       1.60201
   596    H   16  dx2y2  Ryd( 4d)     0.00001       4.05870
   597    H   16  dz2    Ryd( 3d)     0.00003       1.79147
   598    H   16  dz2    Ryd( 4d)     0.00003       4.33892
 
   599    H   17  S      Val( 1S)     0.77382       0.03991
   600    H   17  S      Ryd( 4S)     0.00037       1.74286
   601    H   17  S      Ryd( 2S)     0.00011       0.65446
   602    H   17  S      Ryd( 3S)     0.00003       1.27703
   603    H   17  px     Ryd( 2p)     0.00058       0.93855
   604    H   17  px     Ryd( 4p)     0.00007       4.02911
   605    H   17  px     Ryd( 3p)     0.00004       2.62722
   606    H   17  py     Ryd( 2p)     0.00024       0.98398
   607    H   17  py     Ryd( 4p)     0.00006       3.60524
   608    H   17  py     Ryd( 3p)     0.00005       2.29753
   609    H   17  pz     Ryd( 2p)     0.00052       1.04109
   610    H   17  pz     Ryd( 4p)     0.00007       4.43769
   611    H   17  pz     Ryd( 3p)     0.00004       3.08010
   612    H   17  dxy    Ryd( 3d)     0.00003       1.54019
   613    H   17  dxy    Ryd( 4d)     0.00001       4.03219
   614    H   17  dxz    Ryd( 3d)     0.00005       2.23009
   615    H   17  dxz    Ryd( 4d)     0.00005       4.31447
   616    H   17  dyz    Ryd( 3d)     0.00003       1.65603
   617    H   17  dyz    Ryd( 4d)     0.00001       4.13099
   618    H   17  dx2y2  Ryd( 3d)     0.00002       1.60207
   619    H   17  dx2y2  Ryd( 4d)     0.00001       4.05884
   620    H   17  dz2    Ryd( 3d)     0.00003       1.79139
   621    H   17  dz2    Ryd( 4d)     0.00003       4.33898
 
   622    H   18  S      Val( 1S)     0.49059       0.13645
   623    H   18  S      Ryd( 4S)     0.00096       1.97794
   624    H   18  S      Ryd( 2S)     0.00012       0.76359
[...]
 272,-0.0212873,0.0012901,-0.0634027,0.0475738,0.0157665,-0.02492,-0.03
 63342,-0.076732,0.0129101,0.094525,-0.0016694,-0.0037548,-0.0064111,-0
 .0145913,-0.012915,0.0011286,0.0798489,0.0349493,0.149686,-0.0051454,-
 0.0093146,-0.0046103,0.0646964,-0.0014443,-0.009869,-0.0120761,-0.0312
 803,0.0772152,-0.0051801,-0.0089596,-0.00111,0.0370283,0.0207973,-0.01
 31971,-0.0592881,-0.1199942,-0.0193983,0.0726446,-0.0367596,0.0272823,
 -0.0335899,-0.0294865,-0.0551901,0.0093094,0.0464354,-0.0203097,-0.072
 5151,0.0398157,-0.031206,-0.0228019,-0.0305665,0.0624777,0.0104578,0.0
 365819,0.322188,-0.0012365,-0.009016,-0.0030476,0.3642339,-0.1030319,-
 0.0071286,-0.0675965,0.2533795\Polar=59.8284738,2.6707839,107.2414583,
 2.8323271,2.8360878,112.2746734\Quadrupole=-1.3536487,2.6165187,-1.262
 87,0.2588403,0.0548814,0.9557276\PG=C01 [X(C6H8N2O2)]\NImag=0\\0.58683
 149,-0.00580597,0.54963412,-0.00441261,-0.07499289,0.57880708,-0.06030
 384,-0.00973621,-0.00824846,0.15828609,-0.00917358,-0.17759039,-0.0572
 5951,0.03672977,0.76591171,-0.00883255,-0.06828786,-0.16195543,0.03441
 782,0.08574556,0.74255792,-0.01070457,0.00062013,-0.00277348,-0.071827
 23,0.00131216,-0.00957805,0.11190943,-0.00043737,0.00944619,-0.0295992
 9,-0.00124943,-0.13149359,0.03806025,0.02637149,0.58025310,-0.00165643
 ,-0.00864315,-0.03439172,-0.00691963,0.08839241,-0.29963458,0.02337167
 ,0.02833903,0.53995103,0.00708839,0.00022978,-0.00041797,0.01215947,-0
 .00385953,-0.00984711,-0.07475549,-0.01750944,-0.01036817,0.14464499,0
 .00013015,0.00650792,0.00327504,-0.00572734,-0.03002243,-0.06819296,-0
 .01789930,-0.30851843,-0.10723162,0.02557559,0.60676643,-0.00032150,0.
 00508132,-0.00452743,-0.00788924,-0.03124534,-0.10993112,-0.00996243,-
 0.09956640,-0.16566607,0.03900694,0.01833389,0.89027074,0.00180982,-0.
 00000847,0.00011094,0.01240816,-0.00700460,-0.00248488,0.01900818,-0.0
 0301564,-0.00055650,-0.07250140,-0.00457950,-0.00028926,0.17158444,-0.
 00018223,-0.00540047,0.00389272,-0.00403530,-0.05457332,-0.00907110,-0
 .00702946,-0.08071319,-0.03426256,-0.00196504,-0.22505194,0.12064220,0
 .03514372,0.77185429,0.00028741,0.00734063,-0.00009199,-0.00557562,-0.
 06757996,-0.02653617,0.00362523,0.04476965,0.04393265,-0.00301246,0.06
 920961,-0.20374629,0.02551033,0.06284872,0.60525428,-0.00422960,-0.001
 84285,0.00072873,-0.06806147,-0.01248067,-0.00097559,0.02099798,-0.003
 13939,-0.00197887,0.01184988,0.00462437,-0.00367715,-0.07230963,-0.009
 50714,-0.01534993,0.14014746,-0.00078486,-0.01668751,-0.00244084,-0.01
 199963,-0.30716327,0.01378776,-0.00112716,-0.06158214,0.06421013,0.000
 61005,0.02823373,-0.00511980,-0.00860416,-0.15341396,-0.08352834,0.025
 80093,0.66268999,-0.00036816,-0.02324615,0.01272564,-0.00148027,0.0043
 1010,-0.10084701,-0.00407780,0.02455017,-0.08467374,0.00050540,0.07390
 949,-0.05528309,-0.01628476,-0.10127977,-0.28618110,0.03102385,-0.0397
 8543,0.78885063,0.00123847,-0.00010609,-0.00002408,0.00359736,-0.00015
 182,-0.00039697,0.00788159,-0.00016622,-0.00039020,0.00150882,-0.00042
 006,0.00010152,-0.06681418,-0.01090682,-0.00352288,-0.00010997,-0.0016
 8603,-0.00032746,0.55123937,-0.00005313,0.00035908,-0.00012486,-0.0000
 8074,-0.00094077,0.00317512,-0.00043157,-0.00067392,0.00045168,-0.0015
 5158,-0.02032226,-0.00776791,-0.01051181,-0.23030922,-0.03573461,-0.00
 059164,-0.00369815,-0.00779808,-0.00336766,0.50677782,-0.00007833,-0.0
 0115236,0.00089668,-0.00047216,0.00176096,-0.00750360,-0.00011354,0.00
 567996,-0.00024347,0.00128117,0.01450505,0.01163043,-0.00393300,-0.043
 48480,-0.09816624,-0.00146915,-0.02935123,0.00166845,0.00039131,-0.019
 82974,0.57981837,-0.00066707,0.00035642,0.00033194,-0.00717010,0.00052
 716,0.00203511,0.00780931,-0.00130256,0.00042023,0.00564510,-0.0008260
 5,-0.00098044,-0.00214584,0.00138130,-0.00164474,-0.07521127,0.0004900
 8,-0.00342875,-0.00279880,0.00023344,0.00021856,0.22177292,0.00014218,
 0.00026505,0.00181734,0.00123804,-0.02399975,0.04176189,-0.00136432,-0
 .00771300,-0.01063640,-0.00035037,0.00498044,-0.00611243,0.00102525,0.
 02002943,-0.00292079,0.00064467,-0.11889617,0.05822809,0.00027502,-0.0
 0002311,0.00249621,0.03223189,0.69125553,0.00054821,0.00598220,0.00393
 257,0.00129718,0.02775501,-0.01077865,0.00048224,-0.00938040,0.0271866
 9,-0.00147649,-0.01546950,-0.00720814,-0.00127447,0.00413512,-0.031464
 49,-0.00358621,0.05508097,-0.20293629,0.00017466,0.00167254,-0.0011255
 8,0.04409742,0.13904738,0.93696154,-0.00210877,-0.00031509,0.00000947,
 -0.00077207,-0.00069664,0.00045399,-0.00024663,0.00018661,-0.00080700,
 -0.00187951,0.00062424,0.00012167,0.00346109,0.00020436,0.00049903,0.0
 2210967,-0.00130127,-0.00509749,0.00077037,-0.00011780,-0.00004718,-0.
 08499325,-0.02228295,-0.03945146,0.03923419,-0.00018768,-0.00681078,0.
 00109898,-0.00014422,-0.00255221,-0.00094975,-0.00009635,0.00148872,-0
 .00368599,0.00037393,0.00362634,0.00157615,0.00000772,-0.00195677,0.00
 574598,-0.00063175,0.01780336,-0.00754981,-0.00011117,-0.00074467,-0.0
 0059828,-0.02213328,-0.25480637,-0.25345814,0.03146835,0.30975351,-0.0
 0011645,-0.00126228,-0.00307114,-0.00012366,-0.01181180,0.00913041,-0.
 00051004,0.00188288,-0.01223110,0.00038461,0.00651031,-0.00114964,0.00
 069926,0.00956290,0.00724915,-0.00579393,-0.02060056,-0.06969782,-0.00
 005385,-0.00072593,0.00047764,-0.03960397,-0.25642971,-0.59061313,0.04
 957652,0.33065047,0.66198333,0.00055227,-0.00014308,-0.00011310,0.0027
 6901,0.00027623,-0.00036966,-0.00094730,0.00014912,0.00022877,-0.00029
 420,-0.00012310,0.00003600,-0.00000046,-0.00025022,-0.00017131,0.01152
 455,-0.00055904,0.00034645,-0.00097376,0.00005535,-0.00020950,-0.06705
 160,-0.00986267,-0.00359800,0.02890194,-0.00916404,-0.00431829,0.04004
 825,-0.00007941,-0.00059939,-0.00036240,0.00040618,0.00882446,0.001679
 43,0.00025158,-0.00184627,0.00587407,-0.00017206,-0.00310537,-0.000461
 33,-0.00043133,-0.00428446,-0.00398896,-0.00181750,-0.03979117,0.01775
 469,-0.00003762,-0.00046845,-0.00125973,-0.01171468,-0.27827718,-0.009
 21630,-0.00847463,-0.07532749,-0.05689455,0.01777585,0.47837939,-0.000
 17715,-0.00159506,-0.00126898,-0.00050492,-0.00088642,-0.00623353,0.00
 012102,0.00384079,-0.00258873,0.00008798,0.00051971,0.00090301,0.00001
 673,-0.00044719,0.00081569,0.00165537,0.04246532,-0.00017022,-0.000112
 84,0.00057259,-0.00377934,-0.00167638,0.02702807,-0.12726993,-0.005033
 19,-0.07040094,0.00420623,0.02280102,-0.10953206,0.59828980,-0.2249329
 5,-0.01047193,0.13493177,0.00839373,0.00224557,-0.00385159,0.00006274,
 -0.00060283,-0.00165139,-0.00048001,0.00049750,-0.00030136,-0.00010436
 ,0.00001389,0.00040367,0.00064694,-0.00034388,0.00010488,-0.00004701,0
 .00000091,-0.00001188,0.00011194,0.00109847,0.00187784,0.00035711,-0.0
 0200950,-0.00057122,-0.00025859,-0.00076134,-0.00039363,0.23593756,-0.
 01625572,-0.04998548,0.01307620,0.01964404,-0.00221538,-0.02391053,0.0
 0226470,-0.00116869,0.00310592,-0.00052154,-0.00280636,-0.00136714,-0.
 00028026,0.00059064,-0.00277140,0.00086214,0.00125567,0.00192409,-0.00
 031314,0.00006942,0.00009433,0.00031777,-0.00124565,-0.00343444,0.0000
 1903,0.00018593,0.00217595,-0.00005797,0.00041905,0.00044821,0.0131689
 7,0.05279317,0.13140235,0.00748225,-0.14692187,0.01553581,-0.00310151,
 -0.02111743,0.00242866,-0.00287609,0.00004137,-0.00108678,-0.00134878,
 -0.00094151,-0.00013780,0.00030427,-0.00134119,0.00005825,0.00178029,0
 .00037550,-0.00003267,-0.00002751,0.00008585,0.00032765,-0.00012321,0.
 00019257,-0.00062861,0.00067010,-0.00031602,0.00010467,-0.00013019,0.0
 0004220,-0.14495775,-0.00222371,0.16581668,-0.24603690,0.03115157,-0.1
 2248370,0.00424479,-0.00324279,-0.00129850,-0.00019981,0.00021427,0.00
 199374,-0.00039821,-0.00088649,0.00009458,-0.00013433,0.00008983,-0.00
 081626,0.00061979,0.00059150,0.00007632,-0.00000681,0.00000446,0.00003
 118,-0.00030964,-0.00121446,-0.00218409,0.00070685,0.00201680,0.000702
 29,-0.00012998,0.00080391,0.00046051,-0.02116505,0.00453811,-0.0134734
 4,0.25962103,0.03748482,-0.05491819,0.02390700,-0.02276683,0.00030850,
 -0.02186514,-0.00205390,-0.00097851,0.00313849,0.00012907,-0.00277058,
 -0.00142042,0.00007480,0.00056779,-0.00272660,-0.00059532,0.00128361,0
 .00199888,0.00032971,0.00003513,0.00005924,-0.00076693,-0.00106355,-0.
 00316832,0.00015701,-0.00000191,0.00208340,0.00016091,0.00032536,0.000
 39290,-0.00236589,0.00036410,-0.00008031,-0.03436368,0.05767417,-0.119
 53047,0.01859699,-0.12083250,-0.01849190,-0.00103322,-0.01949772,-0.00
 270457,-0.00264027,0.00012166,0.00088452,-0.00138557,-0.00106114,0.000
 04702,0.00029085,-0.00129014,0.00010058,0.00173280,0.00037361,0.000040
 85,-0.00003174,0.00007983,-0.00029158,0.00002931,0.00043540,0.00058833
 ,0.00037817,-0.00043350,-0.00009927,-0.00020031,0.00000803,0.01672832,
 -0.00202185,0.01156852,0.13412786,-0.01449689,0.13715832,-0.05097891,-
 0.00390869,0.00246717,-0.00187824,-0.00321730,0.00113328,0.00017747,0.
 00006402,0.00028538,-0.00024738,-0.00004777,0.00000099,0.00038023,-0.0
 0013877,-0.00004736,0.00072596,0.00003873,-0.00042591,0.00006664,0.000
 00807,-0.00003794,-0.00020076,-0.00002080,-0.00012068,0.00104459,0.000
 05440,-0.00001217,-0.00022787,0.00003832,0.00004409,0.00152922,-0.0229
 3009,0.01083320,0.00316704,0.02416358,-0.01173396,0.04655540,-0.004737
 19,-0.25561658,0.11779682,-0.00115999,-0.03366768,0.01020123,0.0003410
 1,0.00275693,0.00401897,-0.00000846,-0.00020517,-0.00019930,-0.0000631
 1,-0.00086106,0.00006587,-0.00014238,0.00150477,-0.00363957,-0.0000139
 1,0.00015716,-0.00036384,-0.00000523,0.00022178,-0.00053214,-0.0000300
 5,0.00020051,0.00027856,0.00001892,-0.00006599,0.00020012,-0.00058234,
 0.00212869,-0.00005983,0.00047841,-0.00040998,0.00106981,0.00590462,0.
 28395080,0.00331945,0.13398360,-0.12374722,-0.00098640,-0.03004497,0.0
 0987962,-0.00000223,-0.00142434,0.00162422,-0.00004088,-0.00099954,-0.
 00002847,-0.00012671,-0.00141504,-0.00062915,-0.00023081,-0.00000317,-
 0.00382109,-0.00001557,0.00006760,-0.00029907,-0.00013872,-0.00084843,
 -0.00203294,0.00007745,0.00196905,0.00051976,0.00006468,0.00058343,0.0
 0042819,-0.00224341,0.01490180,-0.00739426,0.00271781,0.01222555,-0.00
 649780,-0.00239102,-0.12881190,0.13198679,0.00234597,-0.00004481,-0.00
 016643,0.00648197,-0.00073489,-0.00056992,-0.00736236,0.00060960,-0.00
 180501,-0.03233992,-0.00107938,-0.01568870,0.00169666,-0.00000601,0.00
 067131,0.00494726,-0.00045223,-0.00017870,-0.00258004,0.00023881,0.000
 17846,0.00128793,-0.00003972,-0.00004756,-0.00051373,0.00003149,0.0000
 5237,-0.00008299,0.00001533,0.00000469,-0.00008807,-0.00048253,-0.0003
 4085,0.00000171,0.00046088,0.00031408,-0.00009213,0.00000740,0.0000092
 5,0.02595754,-0.00011426,0.00104581,-0.00088681,-0.00089251,-0.0050666
 1,-0.00546194,-0.00089335,0.00440447,-0.02979175,-0.00069318,-0.057867
 54,0.01385093,0.00131191,0.00627908,0.02101779,-0.00040234,-0.00537301
 ,0.00287552,0.00027214,0.00206007,0.00049791,-0.00000019,0.00135709,-0
 .00006394,0.00007409,-0.00006258,0.00097603,0.00000131,-0.00011581,0.0
 0005751,-0.00003967,-0.00019620,-0.00019657,-0.00000129,-0.00024809,-0
 .00023318,0.00001115,0.00004505,0.00007540,0.00145941,0.05391568,-0.00
 009305,0.00048598,0.00001336,-0.00040634,-0.00236250,0.00101458,-0.000
 23820,-0.00019888,-0.01178523,-0.01609101,0.00623899,-0.35479756,-0.00
 070300,-0.00492565,-0.00704166,-0.00023051,0.00189190,-0.00153137,0.00
 014363,-0.00016040,0.00039286,-0.00008923,-0.00084990,0.00041898,0.000
 00812,0.00014886,-0.00051034,0.00001929,0.00033325,-0.00005141,-0.0000
 4495,0.00000180,-0.00006398,0.00003814,-0.00005060,-0.00010165,0.00000
 558,0.00000235,0.00001535,0.01764223,-0.00142493,0.37381793,0.00008074
 ,-0.00002234,0.00003025,0.00045850,-0.00006328,-0.00010561,-0.00050599
 ,-0.00000150,-0.00000108,0.00022563,0.00019349,0.00001572,-0.00201892,
 -0.00018854,-0.00220729,0.00086257,-0.00033455,0.00005585,-0.04857087,
 -0.00115592,-0.01468069,-0.00015869,-0.00002553,0.00007388,-0.00012434
 ,0.00001213,-0.00002815,0.00056854,0.00000608,-0.00003212,-0.00000302,
 -0.00000703,-0.00000570,-0.00000107,0.00001147,0.00000605,-0.00000623,
 -0.00000859,-0.00000687,0.00015045,-0.00006717,0.00003545,0.04641300,0
 .00000150,-0.00030262,0.00042645,-0.00013149,-0.00082749,-0.00123820,0
 .00000344,-0.00002999,-0.00042841,0.00006829,0.00230881,-0.00083932,-0
 .00198329,-0.00479968,-0.03601033,-0.00026585,-0.00477376,0.00065753,-
 0.00095714,-0.04877813,-0.01777643,-0.00002521,-0.00151115,0.00091076,
 0.00001437,0.00044002,-0.00030435,0.00004523,0.00097866,0.00046518,0.0
 0000812,0.00002292,0.00000619,-0.00000487,0.00002258,0.00000619,-0.000
 01169,-0.00012475,-0.00010538,0.00001883,-0.00023229,0.00077164,0.0017
 6985,0.05590807,0.00000557,-0.00004055,0.00023138,-0.00003461,0.000104
 87,-0.00032310,-0.00000612,-0.00052567,-0.00007958,0.00014629,0.001626
 47,0.00139859,-0.00033740,-0.00069198,-0.00781736,-0.00001574,-0.00069
 794,0.00129641,-0.01488764,-0.02168588,-0.31817224,0.00007351,0.000904
 82,0.00033952,-0.00003062,-0.00034841,-0.00035964,-0.00007294,-0.00030
 355,-0.00054930,-0.00000957,0.00001869,-0.00000438,0.00001110,0.000016
 64,-0.00000607,-0.00000366,-0.00004455,-0.00003075,-0.00005425,-0.0009
 2140,0.00004571,0.01643946,0.02397319,0.34404785,-0.00002733,-0.000032
 42,-0.00003721,-0.00013181,0.00041709,0.00005685,-0.00033503,-0.000185
 38,0.00026942,-0.00023309,-0.00104705,0.00020937,0.00500340,-0.0019084
 7,0.00284790,0.00081970,-0.00006416,-0.00049907,-0.21969642,0.11061177
 ,-0.07111625,0.00018302,0.00143658,-0.00028304,-0.00018044,-0.00059244
 ,-0.00018073,0.00015442,-0.00098866,-0.00049359,-0.00000258,0.00003764
 ,-0.00000380,0.00002812,0.00000112,0.00000393,-0.00000044,0.00000543,0
 .00002064,0.00008361,-0.00000893,0.00000734,-0.00029562,-0.00116185,0.
 00012015,0.23650625,-0.00014409,0.00023750,0.00012135,-0.00059460,-0.0
 0219180,0.00126807,-0.00170194,-0.00149838,-0.00109774,0.00080269,-0.0
 0098555,-0.00272575,0.02435714,-0.02039268,0.01068640,-0.00027886,0.00
 238117,0.00042108,0.11095621,-0.11256234,0.04362273,0.00081908,-0.0019
 2481,0.00048010,-0.00009546,0.00043607,-0.00028923,-0.00038008,0.00076
 196,0.00019691,0.00001328,0.00000268,-0.00003976,-0.00002349,-0.000107
 00,-0.00006430,-0.00000858,0.00000635,-0.00000852,0.00026566,-0.000012
 76,0.00004919,-0.00351231,0.00109220,-0.00044704,-0.11964493,0.1274992
 0,-0.00019812,0.00010950,0.00008996,-0.00024357,-0.00140840,0.00094424
 ,-0.00015611,-0.00039949,-0.00105078,0.00010603,0.00042004,0.00007756,
 0.00889221,-0.00326223,0.00297496,0.00005290,0.00071775,-0.00122210,-0
 .07194730,0.04318673,-0.07450513,0.00018332,-0.00257636,0.00120132,-0.
 00005269,0.00049504,-0.00029517,0.00010775,0.00113481,-0.00008526,0.00
 002944,0.00003229,-0.00000273,-0.00000797,-0.00005534,-0.00002214,-0.0
 0000430,0.00000509,-0.00000158,-0.00025223,-0.00016157,0.00008754,-0.0
 2607488,0.01621777,-0.00871951,0.07840037,-0.04719416,0.07685603,0.000
 02109,0.00006658,0.00005722,-0.00010798,-0.00077788,0.00018036,-0.0001
 8582,0.00000246,-0.00047186,-0.00026882,0.00100577,-0.00045611,0.00126
 707,-0.00073481,-0.00153095,0.00090866,0.00029470,0.00032573,-0.224882
 39,-0.09327156,0.09011405,-0.00007775,-0.00188423,0.00045239,-0.000077
 14,0.00069478,0.00013064,0.00035403,0.00114449,0.00047355,0.00002758,-
 0.00002104,-0.00001589,-0.00001043,-0.00003279,0.00000017,-0.00000171,
 -0.00000416,-0.00002144,0.00007912,-0.00001728,-0.00000133,0.00288428,
 0.00260758,-0.00133183,-0.02182766,-0.01076788,0.01120120,0.24191551,0
 .00017959,0.00021475,0.00009983,0.00050083,-0.00218633,0.00120590,0.00
 144283,-0.00167527,-0.00121845,-0.00115177,-0.00099083,-0.00259137,-0.
 02548848,-0.01780527,0.01346142,0.00047528,0.00232217,0.00033865,-0.09
 356505,-0.09092604,0.04549364,-0.00096363,-0.00165386,0.00053261,0.000
 12040,0.00035620,-0.00031702,0.00044124,0.00060477,0.00010364,0.000002
 60,-0.00010710,-0.00006452,-0.00001599,0.00000799,-0.00003849,0.000008
 52,0.00000591,-0.00000732,-0.00026774,0.00001593,0.00007675,0.00340169
 ,0.00051766,-0.00073008,0.01321529,0.00710571,-0.00733538,0.10157906,0
 .10405988,0.00021648,0.00008241,0.00006399,0.00020253,-0.00137150,0.00
 091538,0.00003299,-0.00041954,-0.00102320,-0.00003209,0.00032312,0.000
 11842,-0.00915115,-0.00235672,0.00412412,-0.00019039,0.00071220,-0.001
 25181,0.09089343,0.04494065,-0.09095835,-0.00033052,-0.00238013,0.0011
 9070,0.00008348,0.00042245,-0.00031792,-0.00002935,0.00103323,-0.00012
 582,-0.00000293,-0.00005445,-0.00002133,-0.00002518,0.00003877,-0.0000
 0015,0.00000486,0.00000507,0.00000003,0.00023313,-0.00018687,0.0000633
 3,0.02648472,0.01323485,-0.01132434,-0.00923774,-0.00503457,0.00382441
 ,-0.09918288,-0.04904897,0.09488575,0.00002168,0.00001344,0.00000955,0
 .00145368,-0.00010498,0.00003304,-0.00077644,0.00001220,0.00003694,0.0
 0027575,-0.00001507,-0.00002058,-0.00058992,0.00001969,0.00003394,0.00
 376152,-0.00056904,-0.00027012,0.00017762,-0.00001939,-0.00004511,0.00
 397455,-0.00104704,0.00301818,-0.00568994,0.00041081,-0.00023324,-0.01
 490627,0.00403549,-0.01724113,0.00001484,0.00001693,-0.00000729,0.0000
 0290,-0.00002804,0.00001007,-0.00001289,-0.00000038,-0.00000523,0.0000
 2701,0.00000016,-0.00000216,0.00004106,0.00000417,-0.00001171,-0.00004
 811,-0.00006182,-0.00003605,-0.00001763,0.00008534,0.00003062,0.012290
 60,0.00001725,0.00020098,0.00015486,-0.00000058,-0.00055366,0.00209227
 ,-0.00000998,-0.00045802,-0.00053465,-0.00000641,0.00022278,-0.0000679
 7,0.00005011,0.00024080,0.00011491,-0.00071171,-0.00609531,-0.00366949
 ,-0.00003034,-0.00001161,-0.00039362,0.00138062,-0.02699471,0.05912648
 ,0.00044544,0.00797210,-0.00548507,0.00161604,-0.08641205,0.10657070,0
 .00012805,-0.00010743,0.00002888,-0.00013581,-0.00009140,0.00004170,-0
 .00000772,-0.00002674,-0.00013781,-0.00000012,0.00005169,-0.00002784,-
 0.00000796,0.00008894,-0.00020763,-0.00009064,0.00015248,0.00007391,0.
 00011622,0.00013374,0.00006000,-0.00275246,0.11168742,0.00000538,0.000
 07544,0.00004764,-0.00007655,0.00003623,-0.00008381,0.00006077,-0.0000
 9236,0.00051058,-0.00002997,-0.00024375,-0.00005828,0.00000243,-0.0004
 7975,-0.00004507,-0.00012139,-0.00085184,0.00232540,-0.00003392,-0.000
 18025,-0.00029708,0.00049658,0.01156426,0.00156985,-0.00026982,-0.0061
 6393,-0.00457112,-0.01472720,0.15395646,-0.46257064,-0.00003626,0.0000
 0424,0.00000200,0.00003560,0.00000274,-0.00000257,0.00000246,0.0000072
 3,0.00002838,-0.00000186,-0.00002214,0.00001357,0.00000102,0.00003265,
 0.00002680,-0.00008453,0.00005523,-0.00015161,0.00007698,0.00003916,-0
 .00016318,0.01470029,-0.15773962,0.46341913\\-0.00000415,-0.00002062,-
 0.00002218,-0.00000553,0.00008406,-0.00024557,0.00002015,0.00014706,0.
 00026699,-0.00001279,-0.00030938,0.00004704,0.00002152,0.00032766,0.00
 003357,-0.00001896,-0.00026251,-0.00012064,-0.00000113,-0.00002649,0.0
 0001513,-0.00000730,0.00015371,0.00013720,0.,-0.00006970,-0.00011840,0
 .00000487,-0.00005809,0.00003337,-0.00000085,0.00000270,-0.00000846,0.
 00000287,0.00000461,-0.00000818,0.00000037,0.00001134,-0.00000190,0.00
 000242,0.00003370,0.00001581,-0.00000055,-0.00001460,0.00000271,0.0000
 0722,-0.00000195,-0.00000133,-0.00000711,-0.00000081,-0.00000034,-0.00
 000104,-0.00000066,-0.00002482\\\@
 The archive entry for this job was punched.


            ARSENIC

 FOR SMELTER FUMES HAVE I BEEN NAMED,
    I AM AN EVIL POISONOUS SMOKE...
 BUT WHEN FROM POISON I AM FREED,
    THROUGH ART AND SLEIGHT OF HAND,
 THEN CAN I CURE BOTH MAN AND BEAST,
    FROM DIRE DISEASE OFTTIMES DIRECT THEM;
 BUT PREPARE ME CORRECTLY, AND TAKE GREAT CARE
    THAT YOU FAITHFULLY KEEP WATCHFUL GUARD OVER ME;
 FOR ELSE I AM POISON, AND POISON REMAIN,
    THAT PIERCES THE HEART OF MANY A ONE.

 ATTRIBUTED TO THE PROBABLY MYTHICAL 15TH
 CENTURY MONK, BASILIUS VALENTINUS
 Job cpu time:       0 days 17 hours 11 minutes  6.5 seconds.
 Elapsed time:       0 days  0 hours 51 minutes 34.6 seconds.
 File lengths (MBytes):  RWF=    493 Int=      0 D2E=      0 Chk=     33 Scr=      1
 Normal termination of Gaussian 16 at Tue Mar  4 18:51:13 2025.
