 Entering Gaussian System, Link 0=g16
 Initial command:
 /usr/local/gaussian16c01/g16/l1.exe "/scr/dhuang/Gau-313081.inp" -scrdir="/scr/dhuang/"
 Entering Link 1 = /usr/local/gaussian16c01/g16/l1.exe PID=    313083.
  
 Copyright (c) 1988-2019, Gaussian, Inc.  All Rights Reserved.
  
 This is part of the Gaussian(R) 16 program.  It is based on
 the Gaussian(R) 09 system (copyright 2009, Gaussian, Inc.),
 the Gaussian(R) 03 system (copyright 2003, Gaussian, Inc.),
 the Gaussian(R) 98 system (copyright 1998, Gaussian, Inc.),
 the Gaussian(R) 94 system (copyright 1995, Gaussian, Inc.),
 the Gaussian 92(TM) system (copyright 1992, Gaussian, Inc.),
 the Gaussian 90(TM) system (copyright 1990, Gaussian, Inc.),
 the Gaussian 88(TM) system (copyright 1988, Gaussian, Inc.),
 the Gaussian 86(TM) system (copyright 1986, Carnegie Mellon
 University), and the Gaussian 82(TM) system (copyright 1983,
 Carnegie Mellon University). Gaussian is a federally registered
 trademark of Gaussian, Inc.
  
 This software contains proprietary and confidential information,
 including trade secrets, belonging to Gaussian, Inc.
  
 This software is provided under written license and may be
 used, copied, transmitted, or stored only in accord with that
 written license.
  
 The following legend is applicable only to US Government
 contracts under FAR:
  
                    RESTRICTED RIGHTS LEGEND
  
 Use, reproduction and disclosure by the US Government is
 subject to restrictions as set forth in subparagraphs (a)
 and (c) of the Commercial Computer Software - Restricted
 Rights clause in FAR 52.227-19.
  
 Gaussian, Inc.
 340 Quinnipiac St., Bldg. 40, Wallingford CT 06492
  
  
 ---------------------------------------------------------------
 Warning -- This program may not be used in any manner that
 competes with the business of Gaussian, Inc. or will provide
 assistance to any competitor of Gaussian, Inc.  The licensee
 of this program is prohibited from giving any competitor of
 Gaussian, Inc. access to this program.  By using this program,
 the user acknowledges that Gaussian, Inc. is engaged in the
 business of creating and licensing software in the field of
 computational chemistry and represents and warrants to the
 licensee that it is not a competitor of Gaussian, Inc. and that
 it will not use this program in any manner prohibited above.
 ---------------------------------------------------------------
  

 Cite this work as:
 Gaussian 16, Revision C.01,
 M. J. Frisch, G. W. Trucks, H. B. Schlegel, G. E. Scuseria, 
 M. A. Robb, J. R. Cheeseman, G. Scalmani, V. Barone, 
 G. A. Petersson, H. Nakatsuji, X. Li, M. Caricato, A. V. Marenich, 
 J. Bloino, B. G. Janesko, R. Gomperts, B. Mennucci, H. P. Hratchian, 
 J. V. Ortiz, A. F. Izmaylov, J. L. Sonnenberg, D. Williams-Young, 
 F. Ding, F. Lipparini, F. Egidi, J. Goings, B. Peng, A. Petrone, 
 T. Henderson, D. Ranasinghe, V. G. Zakrzewski, J. Gao, N. Rega, 
 G. Zheng, W. Liang, M. Hada, M. Ehara, K. Toyota, R. Fukuda, 
 J. Hasegawa, M. Ishida, T. Nakajima, Y. Honda, O. Kitao, H. Nakai, 
 T. Vreven, K. Throssell, J. A. Montgomery, Jr., J. E. Peralta, 
 F. Ogliaro, M. J. Bearpark, J. J. Heyd, E. N. Brothers, K. N. Kudin, 
 V. N. Staroverov, T. A. Keith, R. Kobayashi, J. Normand, 
 K. Raghavachari, A. P. Rendell, J. C. Burant, S. S. Iyengar, 
 J. Tomasi, M. Cossi, J. M. Millam, M. Klene, C. Adamo, R. Cammi, 
 J. W. Ochterski, R. L. Martin, K. Morokuma, O. Farkas, 
 J. B. Foresman, and D. J. Fox, Gaussian, Inc., Wallingford CT, 2019.
 
 ******************************************
 Gaussian 16:  ES64L-G16RevC.01  3-Jul-2019
                 2-Apr-2025 
 ******************************************
 %nprocshared=20
 Will use up to   20 processors via shared memory.
 %mem=10000MW
 %chk=H.chk
 ------------------------------------
 # opt freq m062x/aug-cc-pvtz pop=nbo
 ------------------------------------
 1/18=20,19=15,26=3,38=1/1,3;
 2/9=110,12=2,17=6,18=5,40=1/2;
 3/5=16,6=1,7=10,11=2,25=1,30=1,71=1,74=-55/1,2,3;
 4//1;
 5/5=2,38=5/2;
 6/7=2,8=2,9=2,10=2,28=1,40=1/1,7;
 7//1,2,3,16;
 1/18=20,19=15,26=3/3(2);
 2/9=110/2;
 99//99;
 2/9=110/2;
 3/5=16,6=1,7=10,11=2,25=1,30=1,71=1,74=-55/1,2,3;
 4/5=5,16=3,69=1/1;
 5/5=2,38=5/2;
 7//1,2,3,16;
 1/18=20,19=15,26=3/3(-5);
 2/9=110/2;
 6/7=2,8=2,9=2,10=2,19=2,28=1,40=1/1,7;
 99/9=1/99;
 -
 H
 -
 Symbolic Z-matrix:
 Charge =  0 Multiplicity = 1
 C                    -1.1536   -0.3028   -0.0007 
 C                    -1.1454   -1.6457   -0.0011 
 C                     0.0172   -2.314    -0.0005 
 C                     1.1715   -1.6316    0.0005 
 C                     1.162    -0.2889    0.001 
 C                     0.0003    0.3927    0.0003 
 C                     0.0107    1.7575    0.0006 
 O                    -1.0018    2.4254   -0.0003 
 O                     1.1628    2.4738    0.0018 
 H                    -2.1365    0.1972   -0.0012 
 H                    -2.0969   -2.204    -0.0018 
 H                     0.024    -3.4167   -0.0009 
 H                     2.1302   -2.1775    0.0009 
 H                     2.1365    0.2274    0.0018 
 H                     0.9325    3.4167    0.0013 
 

 GradGradGradGradGradGradGradGradGradGradGradGradGradGradGradGradGradGrad
 Berny optimization.
 Initialization pass.
                           ----------------------------
                           !    Initial Parameters    !
                           ! (Angstroms and Degrees)  !
 --------------------------                            --------------------------
 ! Name  Definition              Value          Derivative Info.                !
 --------------------------------------------------------------------------------
 ! R1    R(1,2)                  1.3429         estimate D2E/DX2                !
 ! R2    R(1,6)                  1.3473         estimate D2E/DX2                !
 ! R3    R(1,10)                 1.1028         estimate D2E/DX2                !
 ! R4    R(2,3)                  1.341          estimate D2E/DX2                !
 ! R5    R(2,11)                 1.1032         estimate D2E/DX2                !
 ! R6    R(3,4)                  1.3409         estimate D2E/DX2                !
 ! R7    R(3,12)                 1.1027         estimate D2E/DX2                !
 ! R8    R(4,5)                  1.3427         estimate D2E/DX2                !
 ! R9    R(4,13)                 1.1032         estimate D2E/DX2                !
 ! R10   R(5,6)                  1.3469         estimate D2E/DX2                !
 ! R11   R(5,14)                 1.1028         estimate D2E/DX2                !
 ! R12   R(6,7)                  1.3648         estimate D2E/DX2                !
 ! R13   R(7,8)                  1.2129         estimate D2E/DX2                !
 ! R14   R(7,9)                  1.3566         estimate D2E/DX2                !
 ! R15   R(9,15)                 0.9706         estimate D2E/DX2                !
 ! A1    A(2,1,6)              120.7291         estimate D2E/DX2                !
 ! A2    A(2,1,10)             117.3122         estimate D2E/DX2                !
 ! A3    A(6,1,10)             121.9586         estimate D2E/DX2                !
 ! A4    A(1,2,3)              120.2415         estimate D2E/DX2                !
 ! A5    A(1,2,11)             120.0528         estimate D2E/DX2                !
 ! A6    A(3,2,11)             119.7057         estimate D2E/DX2                !
 ! A7    A(2,3,4)              119.5176         estimate D2E/DX2                !
 ! A8    A(2,3,12)             120.245          estimate D2E/DX2                !
 ! A9    A(4,3,12)             120.2375         estimate D2E/DX2                !
 ! A10   A(3,4,5)              120.1854         estimate D2E/DX2                !
 ! A11   A(3,4,13)             119.7513         estimate D2E/DX2                !
 ! A12   A(5,4,13)             120.0633         estimate D2E/DX2                !
 ! A13   A(4,5,6)              120.8066         estimate D2E/DX2                !
 ! A14   A(4,5,14)             117.5097         estimate D2E/DX2                !
 ! A15   A(6,5,14)             121.6836         estimate D2E/DX2                !
 ! A16   A(1,6,5)              118.5198         estimate D2E/DX2                !
 ! A17   A(1,6,7)              121.5156         estimate D2E/DX2                !
 ! A18   A(5,6,7)              119.9647         estimate D2E/DX2                !
 ! A19   A(6,7,8)              122.9744         estimate D2E/DX2                !
 ! A20   A(6,7,9)              122.3072         estimate D2E/DX2                !
 ! A21   A(8,7,9)              114.7184         estimate D2E/DX2                !
 ! A22   A(7,9,15)             108.145          estimate D2E/DX2                !
 ! D1    D(6,1,2,3)              0.0003         estimate D2E/DX2                !
 ! D2    D(6,1,2,11)           179.9928         estimate D2E/DX2                !
 ! D3    D(10,1,2,3)          -179.9984         estimate D2E/DX2                !
 ! D4    D(10,1,2,11)           -0.0059         estimate D2E/DX2                !
 ! D5    D(2,1,6,5)             -0.0054         estimate D2E/DX2                !
 ! D6    D(2,1,6,7)            179.9941         estimate D2E/DX2                !
 ! D7    D(10,1,6,5)           179.9933         estimate D2E/DX2                !
 ! D8    D(10,1,6,7)            -0.0072         estimate D2E/DX2                !
 ! D9    D(1,2,3,4)             -0.0001         estimate D2E/DX2                !
 ! D10   D(1,2,3,12)          -179.9957         estimate D2E/DX2                !
 ! D11   D(11,2,3,4)          -179.9926         estimate D2E/DX2                !
 ! D12   D(11,2,3,12)            0.0118         estimate D2E/DX2                !
 ! D13   D(2,3,4,5)              0.0051         estimate D2E/DX2                !
 ! D14   D(2,3,4,13)          -179.9942         estimate D2E/DX2                !
 ! D15   D(12,3,4,5)          -179.9993         estimate D2E/DX2                !
 ! D16   D(12,3,4,13)            0.0013         estimate D2E/DX2                !
 ! D17   D(3,4,5,6)             -0.0104         estimate D2E/DX2                !
 ! D18   D(3,4,5,14)          -179.9987         estimate D2E/DX2                !
 ! D19   D(13,4,5,6)           179.989          estimate D2E/DX2                !
 ! D20   D(13,4,5,14)            0.0006         estimate D2E/DX2                !
 ! D21   D(4,5,6,1)              0.0104         estimate D2E/DX2                !
 ! D22   D(4,5,6,7)           -179.9891         estimate D2E/DX2                !
 ! D23   D(14,5,6,1)           179.9982         estimate D2E/DX2                !
 ! D24   D(14,5,6,7)            -0.0012         estimate D2E/DX2                !
 ! D25   D(1,6,7,8)             -0.0167         estimate D2E/DX2                !
 ! D26   D(1,6,7,9)            179.9902         estimate D2E/DX2                !
 ! D27   D(5,6,7,8)            179.9828         estimate D2E/DX2                !
 ! D28   D(5,6,7,9)             -0.0104         estimate D2E/DX2                !
 ! D29   D(6,7,9,15)           179.9695         estimate D2E/DX2                !
 ! D30   D(8,7,9,15)            -0.0242         estimate D2E/DX2                !
 --------------------------------------------------------------------------------
 Trust Radius=3.00D-01 FncErr=1.00D-07 GrdErr=1.00D-06 EigMax=2.50D+02 EigMin=1.00D-04
 Number of steps in this run=     77 maximum allowed number of steps=    100.
 GradGradGradGradGradGradGradGradGradGradGradGradGradGradGradGradGradGrad

                          Input orientation:                          
 ---------------------------------------------------------------------
 Center     Atomic      Atomic             Coordinates (Angstroms)
 Number     Number       Type             X           Y           Z
 ---------------------------------------------------------------------
      1          6           0       -1.153600   -0.302800   -0.000700
      2          6           0       -1.145400   -1.645700   -0.001100
      3          6           0        0.017200   -2.314000   -0.000500
      4          6           0        1.171500   -1.631600    0.000500
      5          6           0        1.162000   -0.288900    0.001000
      6          6           0        0.000300    0.392700    0.000300
      7          6           0        0.010700    1.757500    0.000600
      8          8           0       -1.001800    2.425400   -0.000300
      9          8           0        1.162800    2.473800    0.001800
     10          1           0       -2.136500    0.197200   -0.001200
     11          1           0       -2.096900   -2.204000   -0.001800
     12          1           0        0.024000   -3.416700   -0.000900
     13          1           0        2.130200   -2.177500    0.000900
     14          1           0        2.136500    0.227400    0.001800
     15          1           0        0.932500    3.416700    0.001300
 ---------------------------------------------------------------------
                    Distance matrix (angstroms):
                    1          2          3          4          5
     1  C    0.000000
     2  C    1.342925   0.000000
     3  C    2.327165   1.340994   0.000000
     4  C    2.678022   2.316943   1.340925   0.000000
     5  C    2.315642   2.676753   2.326284   1.342734   0.000000
     6  C    1.347296   2.338312   2.706753   2.338696   1.346895
     7  C    2.366523   3.594209   4.071505   3.582381   2.348030
     8  O    2.732420   4.073632   4.847708   4.602443   3.471233
     9  O    3.615968   4.722084   4.922950   4.105409   2.762700
    10  H    1.102766   2.092501   3.308255   3.779865   3.334127
    11  H    2.122352   1.103201   2.116960   3.318145   3.779953
    12  H    3.329131   2.122248   1.102721   2.122107   3.328390
    13  H    3.781249   3.318489   2.117405   1.103228   2.122315
    14  H    3.332548   3.778807   3.309101   2.094542   1.102822
    15  H    4.264563   5.472254   5.803335   5.053954   3.712700
                    6          7          8          9         10
     6  C    0.000000
     7  C    1.364840   0.000000
     8  O    2.266291   1.212950   0.000000
     9  O    2.383776   1.356621   2.165142   0.000000
    10  H    2.145725   2.654243   2.500484   4.008528   0.000000
    11  H    3.337829   4.487256   4.757162   5.701532   2.401527
    12  H    3.809474   5.174217   5.931475   5.999572   4.210467
    13  H    3.338024   4.469508   5.567415   4.750837   4.883025
    14  H    2.142586   2.619205   3.831466   2.448347   4.273108
    15  H    3.164423   1.898068   2.173521   0.970618   4.447915
                   11         12         13         14         15
    11  H    0.000000
    12  H    2.443125   0.000000
    13  H    4.227184   2.443706   0.000000
    14  H    4.881946   4.212141   2.404908   0.000000
    15  H    6.385103   6.893528   5.720975   3.408996   0.000000
 Stoichiometry    C7H6O2
 Framework group  C1[X(C7H6O2)]
 Deg. of freedom    39
 Full point group                 C1      NOp   1
 Largest Abelian subgroup         C1      NOp   1
 Largest concise Abelian subgroup C1      NOp   1
                         Standard orientation:                         
 ---------------------------------------------------------------------
 Center     Atomic      Atomic             Coordinates (Angstroms)
 Number     Number       Type             X           Y           Z
 ---------------------------------------------------------------------
      1          6           0        0.525727    1.173759   -0.000130
      2          6           0        1.867061    1.108417   -0.000054
      3          6           0        2.485279   -0.081571    0.000068
      4          6           0        1.754373   -1.205785    0.000117
      5          6           0        0.413294   -1.139152   -0.000060
      6          6           0       -0.218250    0.050503   -0.000079
      7          6           0       -1.582256    0.098194   -0.000035
      8          8           0       -2.206462    1.138201    0.000257
      9          8           0       -2.346937   -1.022379   -0.000180
     10          1           0        0.068009    2.177047   -0.000257
     11          1           0        2.465348    2.035295   -0.000218
     12          1           0        3.586690   -0.135292    0.000202
     13          1           0        2.258979   -2.186848    0.000314
     14          1           0       -0.144010   -2.090797    0.000010
     15          1           0       -3.279182   -0.752161    0.000376
 ---------------------------------------------------------------------
 Rotational constants (GHZ):           4.1871768           1.2966431           0.9900533
 Standard basis: Aug-CC-pVTZ (5D, 7F)
 There are   645 symmetry adapted cartesian basis functions of A   symmetry.
 There are   552 symmetry adapted basis functions of A   symmetry.
   552 basis functions,   810 primitive gaussians,   645 cartesian basis functions
    32 alpha electrons       32 beta electrons
       nuclear repulsion energy       416.8935673742 Hartrees.
 NAtoms=   15 NActive=   15 NUniq=   15 SFac= 1.00D+00 NAtFMM=   60 NAOKFM=F Big=F
 Integral buffers will be    131072 words long.
 Raffenetti 2 integral format.
 Two-electron integral symmetry is turned on.
 One-electron integrals computed using PRISM.
 NBasis=   552 RedAO= T EigKep=  1.05D-06  NBF=   552
 NBsUse=   550 1.00D-06 EigRej=  6.99D-07 NBFU=   550
 ExpMin= 2.53D-02 ExpMax= 1.53D+04 ExpMxC= 5.22D+02 IAcc=3 IRadAn=         5 AccDes= 0.00D+00
 Harris functional with IExCor= 1009 and IRadAn=       5 diagonalized for initial guess.
 HarFok:  IExCor= 1009 AccDes= 0.00D+00 IRadAn=         5 IDoV= 1 UseB2=F ITyADJ=14
 ICtDFT=  3500011 ScaDFX=  1.000000  1.000000  1.000000  1.000000
 FoFCou: FMM=F IPFlag=           0 FMFlag=      100000 FMFlg1=           0
         NFxFlg=           0 DoJE=T BraDBF=F KetDBF=T FulRan=T
         wScrn=  0.000000 ICntrl=       500 IOpCl=  0 I1Cent=   200000004 NGrid=           0
         NMat0=    1 NMatS0=      1 NMatT0=    0 NMatD0=    1 NMtDS0=    0 NMtDT0=    0
 Petite list used in FoFCou.
 Requested convergence on RMS density matrix=1.00D-08 within 128 cycles.
 Requested convergence on MAX density matrix=1.00D-06.
 Requested convergence on             energy=1.00D-06.
 No special actions if energy rises.
 SCF Done:  E(RM062X) =  -420.788640835     A.U. after   13 cycles
            NFock= 13  Conv=0.88D-08     -V/T= 2.0030

 **********************************************************************

            Population analysis using the SCF Density.

 **********************************************************************

 Orbital symmetries:
       Occupied  (A) (A) (A) (A) (A) (A) (A) (A) (A) (A) (A) (A)
                 (A) (A) (A) (A) (A) (A) (A) (A) (A) (A) (A) (A)
                 (A) (A) (A) (A) (A) (A) (A) (A)
       Virtual   (A) (A) (A) (A) (A) (A) (A) (A) (A) (A) (A) (A)
                 (A) (A) (A) (A) (A) (A) (A) (A) (A) (A) (A) (A)
                 (A) (A) (A) (A) (A) (A) (A) (A) (A) (A) (A) (A)
                 (A) (A) (A) (A) (A) (A) (A) (A) (A) (A) (A) (A)
                 (A) (A) (A) (A) (A) (A) (A) (A) (A) (A) (A) (A)
                 (A) (A) (A) (A) (A) (A) (A) (A) (A) (A) (A) (A)
                 (A) (A) (A) (A) (A) (A) (A) (A) (A) (A) (A) (A)
                 (A) (A) (A) (A) (A) (A) (A) (A) (A) (A) (A) (A)
                 (A) (A) (A) (A) (A) (A) (A) (A) (A) (A) (A) (A)
                 (A) (A) (A) (A) (A) (A) (A) (A) (A) (A) (A) (A)
                 (A) (A) (A) (A) (A) (A) (A) (A) (A) (A) (A) (A)
                 (A) (A) (A) (A) (A) (A) (A) (A) (A) (A) (A) (A)
                 (A) (A) (A) (A) (A) (A) (A) (A) (A) (A) (A) (A)
                 (A) (A) (A) (A) (A) (A) (A) (A) (A) (A) (A) (A)
                 (A) (A) (A) (A) (A) (A) (A) (A) (A) (A) (A) (A)
                 (A) (A) (A) (A) (A) (A) (A) (A) (A) (A) (A) (A)
                 (A) (A) (A) (A) (A) (A) (A) (A) (A) (A) (A) (A)
                 (A) (A) (A) (A) (A) (A) (A) (A) (A) (A) (A) (A)
                 (A) (A) (A) (A) (A) (A) (A) (A) (A) (A) (A) (A)
                 (A) (A) (A) (A) (A) (A) (A) (A) (A) (A) (A) (A)
                 (A) (A) (A) (A) (A) (A) (A) (A) (A) (A) (A) (A)
                 (A) (A) (A) (A) (A) (A) (A) (A) (A) (A) (A) (A)
                 (A) (A) (A) (A) (A) (A) (A) (A) (A) (A) (A) (A)
                 (A) (A) (A) (A) (A) (A) (A) (A) (A) (A) (A) (A)
                 (A) (A) (A) (A) (A) (A) (A) (A) (A) (A) (A) (A)
                 (A) (A) (A) (A) (A) (A) (A) (A) (A) (A) (A) (A)
                 (A) (A) (A) (A) (A) (A) (A) (A) (A) (A) (A) (A)
                 (A) (A) (A) (A) (A) (A) (A) (A) (A) (A) (A) (A)
                 (A) (A) (A) (A) (A) (A) (A) (A) (A) (A) (A) (A)
                 (A) (A) (A) (A) (A) (A) (A) (A) (A) (A) (A) (A)
                 (A) (A) (A) (A) (A) (A) (A) (A) (A) (A) (A) (A)
                 (A) (A) (A) (A) (A) (A) (A) (A) (A) (A) (A) (A)
                 (A) (A) (A) (A) (A) (A) (A) (A) (A) (A) (A) (A)
                 (A) (A) (A) (A) (A) (A) (A) (A) (A) (A) (A) (A)
                 (A) (A) (A) (A) (A) (A) (A) (A) (A) (A) (A) (A)
                 (A) (A) (A) (A) (A) (A) (A) (A) (A) (A) (A) (A)
                 (A) (A) (A) (A) (A) (A) (A) (A) (A) (A) (A) (A)
                 (A) (A) (A) (A) (A) (A) (A) (A) (A) (A) (A) (A)
                 (A) (A) (A) (A) (A) (A) (A) (A) (A) (A) (A) (A)
                 (A) (A) (A) (A) (A) (A) (A) (A) (A) (A) (A) (A)
                 (A) (A) (A) (A) (A) (A) (A) (A) (A) (A) (A) (A)
                 (A) (A) (A) (A) (A) (A) (A) (A) (A) (A) (A) (A)
                 (A) (A) (A) (A) (A) (A) (A) (A) (A) (A) (A) (A)
                 (A) (A)
 The electronic state is 1-A.
 Alpha  occ. eigenvalues --  -19.66607 -19.60530 -10.67013 -10.55471 -10.55430
 Alpha  occ. eigenvalues --  -10.55405 -10.55223 -10.54817 -10.54802  -1.23781
 Alpha  occ. eigenvalues --   -1.12825  -1.01455  -0.90637  -0.87478  -0.77389
 Alpha  occ. eigenvalues --   -0.71628  -0.68095  -0.63629  -0.58345  -0.56252
 Alpha  occ. eigenvalues --   -0.54774  -0.54703  -0.51933  -0.50455  -0.48188
 Alpha  occ. eigenvalues --   -0.47292  -0.43070  -0.41321  -0.39655  -0.35499
 Alpha  occ. eigenvalues --   -0.33808  -0.33385
 Alpha virt. eigenvalues --   -0.03285  -0.00861   0.00176   0.00675   0.01313
 Alpha virt. eigenvalues --    0.01909   0.02823   0.03061   0.03699   0.05136
 Alpha virt. eigenvalues --    0.05665   0.06141   0.06259   0.07231   0.07846
 Alpha virt. eigenvalues --    0.07904   0.08070   0.08620   0.09375   0.09447
 Alpha virt. eigenvalues --    0.10007   0.10194   0.10541   0.11259   0.11352
 Alpha virt. eigenvalues --    0.11577   0.11590   0.12880   0.13312   0.14307
 Alpha virt. eigenvalues --    0.16248   0.16405   0.16894   0.17593   0.18566
 Alpha virt. eigenvalues --    0.19342   0.19686   0.20214   0.20424   0.20719
 Alpha virt. eigenvalues --    0.20898   0.21533   0.21687   0.22968   0.23087
 Alpha virt. eigenvalues --    0.23641   0.24066   0.24150   0.24218   0.24569
 Alpha virt. eigenvalues --    0.26016   0.26043   0.26879   0.27147   0.27963
 Alpha virt. eigenvalues --    0.29221   0.29716   0.30031   0.30973   0.31133
 Alpha virt. eigenvalues --    0.32429   0.32595   0.33890   0.33940   0.34307
 Alpha virt. eigenvalues --    0.34815   0.34970   0.35742   0.35963   0.36747
 Alpha virt. eigenvalues --    0.37101   0.37538   0.37764   0.38504   0.38647
 Alpha virt. eigenvalues --    0.39185   0.39890   0.40197   0.41063   0.41261
 Alpha virt. eigenvalues --    0.41729   0.42577   0.43153   0.43669   0.44405
 Alpha virt. eigenvalues --    0.44564   0.44772   0.45662   0.45757   0.46343
 Alpha virt. eigenvalues --    0.48985   0.49471   0.50167   0.51863   0.52653
 Alpha virt. eigenvalues --    0.53372   0.53741   0.53932   0.55452   0.55626
 Alpha virt. eigenvalues --    0.56510   0.56792   0.56900   0.57422   0.57885
 Alpha virt. eigenvalues --    0.60483   0.61439   0.62174   0.62866   0.62887
 Alpha virt. eigenvalues --    0.64825   0.65060   0.65739   0.66251   0.67328
 Alpha virt. eigenvalues --    0.68572   0.68772   0.70114   0.70508   0.71722
 Alpha virt. eigenvalues --    0.72692   0.73033   0.73899   0.74701   0.74906
 Alpha virt. eigenvalues --    0.75545   0.75775   0.76464   0.77248   0.77342
 Alpha virt. eigenvalues --    0.77557   0.78657   0.78665   0.79571   0.79634
 Alpha virt. eigenvalues --    0.80565   0.81455   0.81682   0.83865   0.84362
 Alpha virt. eigenvalues --    0.84565   0.85183   0.85452   0.86094   0.86259
 Alpha virt. eigenvalues --    0.87206   0.87809   0.88589   0.88683   0.89630
 Alpha virt. eigenvalues --    0.90127   0.90843   0.92101   0.93133   0.93669
 Alpha virt. eigenvalues --    0.94170   0.95145   0.95737   0.96184   0.96283
 Alpha virt. eigenvalues --    0.96405   0.97470   0.98482   0.99424   0.99499
 Alpha virt. eigenvalues --    1.00948   1.01485   1.02155   1.02579   1.03380
 Alpha virt. eigenvalues --    1.04614   1.04991   1.05427   1.06661   1.07074
 Alpha virt. eigenvalues --    1.07524   1.08672   1.10017   1.10615   1.11637
 Alpha virt. eigenvalues --    1.11745   1.12116   1.13943   1.14478   1.15150
 Alpha virt. eigenvalues --    1.15831   1.18403   1.18852   1.20046   1.20870
 Alpha virt. eigenvalues --    1.21402   1.21875   1.21936   1.23569   1.25261
 Alpha virt. eigenvalues --    1.26323   1.26989   1.29546   1.30576   1.31940
 Alpha virt. eigenvalues --    1.33004   1.33838   1.34311   1.34370   1.35523
 Alpha virt. eigenvalues --    1.37863   1.38336   1.38981   1.39122   1.40284
 Alpha virt. eigenvalues --    1.42159   1.43283   1.44336   1.47570   1.49571
 Alpha virt. eigenvalues --    1.49979   1.50525   1.51781   1.51934   1.53001
 Alpha virt. eigenvalues --    1.53434   1.54307   1.54811   1.55585   1.56681
 Alpha virt. eigenvalues --    1.57299   1.59091   1.62016   1.64702   1.65065
 Alpha virt. eigenvalues --    1.66106   1.66173   1.66716   1.67929   1.68337
 Alpha virt. eigenvalues --    1.68479   1.69946   1.70738   1.71834   1.72158
 Alpha virt. eigenvalues --    1.73024   1.78184   1.78285   1.80418   1.80627
 Alpha virt. eigenvalues --    1.81555   1.82796   1.83449   1.85177   1.86092
 Alpha virt. eigenvalues --    1.87583   1.88192   1.88514   1.88554   1.90690
 Alpha virt. eigenvalues --    1.91149   1.91925   1.93475   1.94682   1.95247
 Alpha virt. eigenvalues --    1.96290   1.96855   2.00327   2.00696   2.02267
 Alpha virt. eigenvalues --    2.04167   2.05342   2.06832   2.08883   2.10128
 Alpha virt. eigenvalues --    2.11729   2.12285   2.14702   2.15045   2.15612
 Alpha virt. eigenvalues --    2.16547   2.20580   2.22664   2.22729   2.24847
 Alpha virt. eigenvalues --    2.26257   2.26808   2.29347   2.29952   2.31367
 Alpha virt. eigenvalues --    2.33819   2.36597   2.37416   2.37873   2.39675
 Alpha virt. eigenvalues --    2.41199   2.42569   2.42790   2.46315   2.48034
 Alpha virt. eigenvalues --    2.50183   2.50665   2.52185   2.56459   2.57230
 Alpha virt. eigenvalues --    2.57767   2.58553   2.61020   2.65983   2.66986
 Alpha virt. eigenvalues --    2.67786   2.70730   2.70783   2.75533   2.77879
 Alpha virt. eigenvalues --    2.79067   2.81408   2.84216   2.85794   2.88806
 Alpha virt. eigenvalues --    2.89033   2.94739   2.95601   2.96506   2.96965
 Alpha virt. eigenvalues --    2.98281   2.99278   3.00061   3.01131   3.04246
 Alpha virt. eigenvalues --    3.06575   3.06938   3.10181   3.11164   3.12740
 Alpha virt. eigenvalues --    3.12750   3.13750   3.14546   3.14824   3.15399
 Alpha virt. eigenvalues --    3.18173   3.20028   3.21340   3.21789   3.24104
 Alpha virt. eigenvalues --    3.25208   3.26272   3.26665   3.28728   3.29451
 Alpha virt. eigenvalues --    3.29513   3.32637   3.36913   3.37707   3.38445
 Alpha virt. eigenvalues --    3.40236   3.40452   3.41632   3.44504   3.46812
 Alpha virt. eigenvalues --    3.47378   3.49171   3.51655   3.53147   3.53356
 Alpha virt. eigenvalues --    3.55157   3.56416   3.57185   3.59235   3.60146
 Alpha virt. eigenvalues --    3.60566   3.60713   3.62307   3.63923   3.65082
 Alpha virt. eigenvalues --    3.66295   3.67550   3.69734   3.72816   3.74045
 Alpha virt. eigenvalues --    3.75918   3.76883   3.79059   3.79889   3.81495
 Alpha virt. eigenvalues --    3.82498   3.82833   3.83480   3.85508   3.86322
 Alpha virt. eigenvalues --    3.88612   3.89634   3.90130   3.91689   3.94047
 Alpha virt. eigenvalues --    3.95331   3.96134   3.98329   3.98851   3.99252
 Alpha virt. eigenvalues --    4.01335   4.01449   4.03594   4.04496   4.06991
 Alpha virt. eigenvalues --    4.07136   4.11081   4.12172   4.12873   4.13210
 Alpha virt. eigenvalues --    4.15306   4.15905   4.18878   4.20074   4.21907
 Alpha virt. eigenvalues --    4.22172   4.24249   4.25705   4.30044   4.32020
 Alpha virt. eigenvalues --    4.34598   4.36670   4.38976   4.40445   4.41414
 Alpha virt. eigenvalues --    4.43182   4.44131   4.45188   4.52046   4.53423
 Alpha virt. eigenvalues --    4.57512   4.58545   4.62241   4.62255   4.63220
 Alpha virt. eigenvalues --    4.64188   4.67456   4.68110   4.68682   4.69005
 Alpha virt. eigenvalues --    4.72006   4.73397   4.75928   4.77135   4.77579
 Alpha virt. eigenvalues --    4.78412   4.80507   4.82058   4.85611   4.87348
 Alpha virt. eigenvalues --    4.89315   4.92775   4.97061   4.98294   5.00036
 Alpha virt. eigenvalues --    5.02306   5.02671   5.03693   5.04012   5.06276
 Alpha virt. eigenvalues --    5.08951   5.09307   5.11852   5.22046   5.24651
 Alpha virt. eigenvalues --    5.31276   5.34158   5.39956   5.42547   5.46604
 Alpha virt. eigenvalues --    5.46679   5.52905   5.59664   5.71764   5.74640
 Alpha virt. eigenvalues --    5.81776   5.87893   5.87968   5.92287   5.94685
 Alpha virt. eigenvalues --    6.01799   6.07625   6.20280   6.24305   6.26054
 Alpha virt. eigenvalues --    6.30415   6.37415   6.38001   6.39806   6.43579
 Alpha virt. eigenvalues --    6.48740   6.52796   6.55379   6.57755   6.65438
 Alpha virt. eigenvalues --    6.71804   6.75568   6.79210   6.80978   6.82860
 Alpha virt. eigenvalues --    6.87769   6.88072   6.91700   7.03784   7.08502
 Alpha virt. eigenvalues --    7.10517   7.14321   7.18844   7.33658   7.40980
 Alpha virt. eigenvalues --    7.52738   7.70966   7.89539   8.04624  15.39718
 Alpha virt. eigenvalues --   15.69085  16.94629  17.69246  17.91067  18.74987
 Alpha virt. eigenvalues --   19.98713  20.02815  20.51171
          Condensed to atoms (all electrons):
               1          2          3          4          5          6
     1  C    8.412935  -0.065957   0.213742  -0.681124   0.103489  -0.987722
     2  C   -0.065957   6.976123  -0.191396   0.266744  -0.668790  -0.037660
     3  C    0.213742  -0.191396   6.603098  -0.191640   0.119948  -0.521008
     4  C   -0.681124   0.266744  -0.191640   7.122119  -0.162665  -0.101632
     5  C    0.103489  -0.668790   0.119948  -0.162665   8.023342  -0.656923
     6  C   -0.987722  -0.037660  -0.521008  -0.101632  -0.656923   6.912695
     7  C   -0.303542  -0.008347   0.108964   0.133430  -0.402430  -0.572354
     8  O    0.124638  -0.058270  -0.002231  -0.055648  -0.018753  -0.176807
     9  O    0.019669  -0.026272   0.003119  -0.050029   0.031618  -0.016175
    10  H    0.373394  -0.387982   0.024454  -0.003043   0.061274  -0.118217
    11  H   -0.196191   0.575188  -0.253538   0.030202  -0.009235   0.042347
    12  H    0.073580  -0.279716   0.535992  -0.249845   0.082268  -0.042096
    13  H    0.006113   0.037558  -0.247126   0.588236  -0.208857   0.018124
    14  H    0.081302  -0.015785   0.051661  -0.419125   0.376774  -0.125862
    15  H   -0.058685  -0.002455  -0.001565   0.025596   0.027429   0.017971
               7          8          9         10         11         12
     1  C   -0.303542   0.124638   0.019669   0.373394  -0.196191   0.073580
     2  C   -0.008347  -0.058270  -0.026272  -0.387982   0.575188  -0.279716
     3  C    0.108964  -0.002231   0.003119   0.024454  -0.253538   0.535992
     4  C    0.133430  -0.055648  -0.050029  -0.003043   0.030202  -0.249845
     5  C   -0.402430  -0.018753   0.031618   0.061274  -0.009235   0.082268
     6  C   -0.572354  -0.176807  -0.016175  -0.118217   0.042347  -0.042096
     7  C    6.918115   0.025948   0.019677   0.078575  -0.001827  -0.001046
     8  O    0.025948   9.316726  -0.118385  -0.030374  -0.003557   0.000916
     9  O    0.019677  -0.118385   8.606761   0.005604  -0.001033   0.001013
    10  H    0.078575  -0.030374   0.005604   0.732550  -0.022863  -0.000023
    11  H   -0.001827  -0.003557  -0.001033  -0.022863   0.658879  -0.026303
    12  H   -0.001046   0.000916   0.001013  -0.000023  -0.026303   0.654805
    13  H    0.008063  -0.001701  -0.003306   0.001213  -0.001607  -0.019895
    14  H   -0.013996   0.015028  -0.051823  -0.007653   0.000393  -0.002808
    15  H    0.056023  -0.107011   0.151364  -0.000818   0.000291  -0.000173
              13         14         15
     1  C    0.006113   0.081302  -0.058685
     2  C    0.037558  -0.015785  -0.002455
     3  C   -0.247126   0.051661  -0.001565
     4  C    0.588236  -0.419125   0.025596
     5  C   -0.208857   0.376774   0.027429
     6  C    0.018124  -0.125862   0.017971
     7  C    0.008063  -0.013996   0.056023
     8  O   -0.001701   0.015028  -0.107011
     9  O   -0.003306  -0.051823   0.151364
    10  H    0.001213  -0.007653  -0.000818
    11  H   -0.001607   0.000393   0.000291
    12  H   -0.019895  -0.002808  -0.000173
    13  H    0.649666  -0.020769   0.000953
    14  H   -0.020769   0.810567  -0.002468
    15  H    0.000953  -0.002468   0.594121
 Mulliken charges:
               1
     1  C   -1.115640
     2  C   -0.112983
     3  C   -0.252475
     4  C   -0.251576
     5  C   -0.698490
     6  C    2.365318
     7  C   -0.045252
     8  O   -0.910519
     9  O   -0.571802
    10  H    0.293910
    11  H    0.208854
    12  H    0.273331
    13  H    0.193335
    14  H    0.324562
    15  H    0.299428
 Sum of Mulliken charges =   0.00000
 Mulliken charges with hydrogens summed into heavy atoms:
               1
     1  C   -0.821730
     2  C    0.095871
     3  C    0.020856
     4  C   -0.058241
     5  C   -0.373928
     6  C    2.365318
     7  C   -0.045252
     8  O   -0.910519
     9  O   -0.272375
 Electronic spatial extent (au):  <R**2>=           1118.1478
 Charge=              0.0000 electrons
 Dipole moment (field-independent basis, Debye):
    X=              2.1233    Y=             -1.3100    Z=              0.0004  Tot=              2.4949
 Quadrupole moment (field-independent basis, Debye-Ang):
   XX=            -45.2113   YY=            -50.9085   ZZ=            -53.9243
   XY=              4.6733   XZ=             -0.0015   YZ=             -0.0029
 Traceless Quadrupole moment (field-independent basis, Debye-Ang):
   XX=              4.8034   YY=             -0.8938   ZZ=             -3.9096
   XY=              4.6733   XZ=             -0.0015   YZ=             -0.0029
 Octapole moment (field-independent basis, Debye-Ang**2):
  XXX=            -20.5210  YYY=             -1.4091  ZZZ=              0.0008  XYY=              9.6783
  XXY=            -15.2628  XXZ=              0.0098  XZZ=            -10.4471  YZZ=              0.3068
  YYZ=             -0.0003  XYZ=              0.0032
 Hexadecapole moment (field-independent basis, Debye-Ang**3):
 XXXX=           -845.5197 YYYY=           -352.6179 ZZZZ=            -56.7704 XXXY=             55.3010
 XXXZ=             -0.0244 YYYX=              6.4945 YYYZ=             -0.0078 ZZZX=             -0.0020
 ZZZY=              0.0007 XXYY=           -239.7117 XXZZ=           -190.0522 YYZZ=            -78.1940
 XXYZ=             -0.0185 YYXZ=             -0.0003 ZZXY=              0.3272
 N-N= 4.168935673742D+02 E-N=-1.816595676087D+03  KE= 4.195414975669D+02
 ******************************Gaussian NBO Version 3.1******************************
             N A T U R A L   A T O M I C   O R B I T A L   A N D
          N A T U R A L   B O N D   O R B I T A L   A N A L Y S I S
 ******************************Gaussian NBO Version 3.1******************************
       /RESON  / : Allow strongly delocalized NBO set

 Analyzing the SCF density

 Job title: H                                                               

 Storage needed:    916440 in NPA,   1220743 in NBO (********** available)
 GSVD:  LWork=        8262 too small for GESVD, short by      581175 words or      581175 for optimal perf.


 NATURAL POPULATIONS:  Natural atomic orbital occupancies 
                                                          
   NAO  Atom  No  lang   Type(AO)    Occupancy      Energy
 ----------------------------------------------------------
     1    C    1  S      Cor( 1S)     1.99909     -10.38503
     2    C    1  S      Val( 2S)     0.94232      -0.18165
     3    C    1  S      Ryd( 4S)     0.00152       1.93131
     4    C    1  S      Ryd( 5S)     0.00010       2.81891
     5    C    1  S      Ryd( 3S)     0.00002       1.78264
     6    C    1  px     Val( 2p)     1.07707      -0.06566
     7    C    1  px     Ryd( 4p)     0.00383       1.94878
     8    C    1  px     Ryd( 5p)     0.00009       2.10751
     9    C    1  px     Ryd( 3p)     0.00008       1.22472
    10    C    1  py     Val( 2p)     1.14846      -0.07157
    11    C    1  py     Ryd( 4p)     0.00503       1.82179
    12    C    1  py     Ryd( 5p)     0.00004       2.08660
    13    C    1  py     Ryd( 3p)     0.00006       1.52334
    14    C    1  pz     Val( 2p)     0.93423      -0.11942
    15    C    1  pz     Ryd( 4p)     0.00072       1.03768
    16    C    1  pz     Ryd( 5p)     0.00006       1.32764
    17    C    1  pz     Ryd( 3p)     0.00003       0.91706
    18    C    1  dxy    Ryd( 4d)     0.00177       2.97046
    19    C    1  dxy    Ryd( 5d)     0.00016       4.16306
    20    C    1  dxy    Ryd( 3d)     0.00007       2.80372
    21    C    1  dxz    Ryd( 3d)     0.00041       1.47223
    22    C    1  dxz    Ryd( 5d)     0.00003       3.25255
    23    C    1  dxz    Ryd( 4d)     0.00003       1.67350
    24    C    1  dyz    Ryd( 4d)     0.00025       1.38114
    25    C    1  dyz    Ryd( 5d)     0.00009       3.26780
    26    C    1  dyz    Ryd( 3d)     0.00003       1.36356
    27    C    1  dx2y2  Ryd( 4d)     0.00203       3.25477
    28    C    1  dx2y2  Ryd( 5d)     0.00020       4.33284
    29    C    1  dx2y2  Ryd( 3d)     0.00008       2.72829
    30    C    1  dz2    Ryd( 3d)     0.00093       1.87845
    31    C    1  dz2    Ryd( 4d)     0.00011       3.90801
    32    C    1  dz2    Ryd( 5d)     0.00006       4.51428
    33    C    1  f(0)   Ryd( 4f)     0.00008       1.47334
    34    C    1  f(0)   Ryd( 5f)     0.00011       3.38113
    35    C    1  f(C1)  Ryd( 4f)     0.00040       1.98101
    36    C    1  f(C1)  Ryd( 5f)     0.00026       3.64250
    37    C    1  f(S1)  Ryd( 4f)     0.00046       1.78288
    38    C    1  f(S1)  Ryd( 5f)     0.00017       3.51343
    39    C    1  f(C2)  Ryd( 4f)     0.00022       1.57147
    40    C    1  f(C2)  Ryd( 5f)     0.00004       3.38970
    41    C    1  f(S2)  Ryd( 4f)     0.00020       1.49328
    42    C    1  f(S2)  Ryd( 5f)     0.00003       3.42726
    43    C    1  f(C3)  Ryd( 4f)     0.00043       2.72097
    44    C    1  f(C3)  Ryd( 5f)     0.00014       4.00659
    45    C    1  f(S3)  Ryd( 4f)     0.00111       2.02193
    46    C    1  f(S3)  Ryd( 5f)     0.00021       4.22782
 
    47    C    2  S      Cor( 1S)     1.99912     -10.38025
    48    C    2  S      Val( 2S)     0.94750      -0.19404
    49    C    2  S      Ryd( 3S)     0.00144       1.87666
    50    C    2  S      Ryd( 5S)     0.00006       2.82807
    51    C    2  S      Ryd( 4S)     0.00002       1.88435
    52    C    2  px     Val( 2p)     1.10028      -0.07495
    53    C    2  px     Ryd( 5p)     0.00431       1.73213
    54    C    2  px     Ryd( 3p)     0.00005       1.28124
    55    C    2  px     Ryd( 4p)     0.00002       1.39214
    56    C    2  py     Val( 2p)     1.14724      -0.08331
    57    C    2  py     Ryd( 5p)     0.00452       1.72473
    58    C    2  py     Ryd( 4p)     0.00002       1.60690
    59    C    2  py     Ryd( 3p)     0.00003       1.55662
    60    C    2  pz     Val( 2p)     0.99902      -0.12615
    61    C    2  pz     Ryd( 3p)     0.00071       1.02300
    62    C    2  pz     Ryd( 5p)     0.00001       1.13479
    63    C    2  pz     Ryd( 4p)     0.00002       1.06024
    64    C    2  dxy    Ryd( 3d)     0.00203       2.44800
    65    C    2  dxy    Ryd( 5d)     0.00020       3.55562
    66    C    2  dxy    Ryd( 4d)     0.00006       2.76585
    67    C    2  dxz    Ryd( 3d)     0.00039       1.43475
    68    C    2  dxz    Ryd( 5d)     0.00001       2.89228
    69    C    2  dxz    Ryd( 4d)     0.00001       1.60476
    70    C    2  dyz    Ryd( 3d)     0.00031       1.46032
    71    C    2  dyz    Ryd( 5d)     0.00004       2.90179
    72    C    2  dyz    Ryd( 4d)     0.00001       1.55843
    73    C    2  dx2y2  Ryd( 4d)     0.00215       3.29336
    74    C    2  dx2y2  Ryd( 5d)     0.00020       3.80510
    75    C    2  dx2y2  Ryd( 3d)     0.00005       2.00302
    76    C    2  dz2    Ryd( 3d)     0.00097       1.80539
    77    C    2  dz2    Ryd( 5d)     0.00006       4.12092
    78    C    2  dz2    Ryd( 4d)     0.00012       3.36981
    79    C    2  f(0)   Ryd( 5f)     0.00012       3.46999
    80    C    2  f(0)   Ryd( 4f)     0.00001       2.16563
    81    C    2  f(C1)  Ryd( 5f)     0.00024       3.74594
    82    C    2  f(C1)  Ryd( 4f)     0.00001       2.66845
    83    C    2  f(S1)  Ryd( 5f)     0.00024       3.70090
    84    C    2  f(S1)  Ryd( 4f)     0.00001       2.82499
    85    C    2  f(C2)  Ryd( 5f)     0.00001       3.57320
    86    C    2  f(C2)  Ryd( 4f)     0.00000       2.28440
    87    C    2  f(S2)  Ryd( 5f)     0.00002       3.65350
    88    C    2  f(S2)  Ryd( 4f)     0.00002       2.30731
    89    C    2  f(C3)  Ryd( 4f)     0.00014       4.23201
    90    C    2  f(C3)  Ryd( 5f)     0.00006       5.70437
    91    C    2  f(S3)  Ryd( 5f)     0.00008       4.35990
    92    C    2  f(S3)  Ryd( 4f)     0.00010       3.97424
 
    93    C    3  S      Cor( 1S)     1.99911     -10.38432
    94    C    3  S      Val( 2S)     0.95043      -0.20057
    95    C    3  S      Ryd( 4S)     0.00137       1.96221
    96    C    3  S      Ryd( 5S)     0.00006       2.76881
    97    C    3  S      Ryd( 3S)     0.00002       1.85628
    98    C    3  px     Val( 2p)     1.18017      -0.08901
    99    C    3  px     Ryd( 4p)     0.00553       1.66538
   100    C    3  px     Ryd( 3p)     0.00003       1.56520
   101    C    3  px     Ryd( 5p)     0.00001       1.73521
   102    C    3  py     Val( 2p)     1.06743      -0.07104
   103    C    3  py     Ryd( 5p)     0.00389       1.72974
   104    C    3  py     Ryd( 3p)     0.00001       1.17029
   105    C    3  py     Ryd( 4p)     0.00002       1.24059
   106    C    3  pz     Val( 2p)     0.95368      -0.12477
   107    C    3  pz     Ryd( 3p)     0.00064       1.01464
   108    C    3  pz     Ryd( 4p)     0.00001       1.01606
   109    C    3  pz     Ryd( 5p)     0.00000       1.14033
   110    C    3  dxy    Ryd( 4d)     0.00216       3.45460
   111    C    3  dxy    Ryd( 5d)     0.00022       3.82188
   112    C    3  dxy    Ryd( 3d)     0.00004       1.58079
   113    C    3  dxz    Ryd( 4d)     0.00030       1.40653
   114    C    3  dxz    Ryd( 5d)     0.00004       3.01921
   115    C    3  dxz    Ryd( 3d)     0.00002       1.27244
   116    C    3  dyz    Ryd( 3d)     0.00052       1.41709
   117    C    3  dyz    Ryd( 5d)     0.00000       2.95092
   118    C    3  dyz    Ryd( 4d)     0.00000       1.52610
   119    C    3  dx2y2  Ryd( 3d)     0.00192       2.18387
   120    C    3  dx2y2  Ryd( 5d)     0.00017       3.57014
   121    C    3  dx2y2  Ryd( 4d)     0.00005       2.80743
   122    C    3  dz2    Ryd( 3d)     0.00097       1.86337
   123    C    3  dz2    Ryd( 5d)     0.00005       4.10726
   124    C    3  dz2    Ryd( 4d)     0.00014       3.44273
   125    C    3  f(0)   Ryd( 5f)     0.00010       3.51715
   126    C    3  f(0)   Ryd( 4f)     0.00001       2.02398
   127    C    3  f(C1)  Ryd( 5f)     0.00018       3.70213
   128    C    3  f(C1)  Ryd( 4f)     0.00001       2.58966
   129    C    3  f(S1)  Ryd( 5f)     0.00025       3.77372
   130    C    3  f(S1)  Ryd( 4f)     0.00002       2.76559
   131    C    3  f(C2)  Ryd( 5f)     0.00001       3.68988
   132    C    3  f(C2)  Ryd( 4f)     0.00003       2.04010
   133    C    3  f(S2)  Ryd( 5f)     0.00001       3.60324
   134    C    3  f(S2)  Ryd( 4f)     0.00000       2.24993
   135    C    3  f(C3)  Ryd( 4f)     0.00014       4.32288
   136    C    3  f(C3)  Ryd( 5f)     0.00007       4.97504
   137    C    3  f(S3)  Ryd( 5f)     0.00006       4.38786
   138    C    3  f(S3)  Ryd( 4f)     0.00014       3.81325
 
   139    C    4  S      Cor( 1S)     1.99912     -10.37987
   140    C    4  S      Val( 2S)     0.94644      -0.19352
   141    C    4  S      Ryd( 4S)     0.00150       1.87501
   142    C    4  S      Ryd( 5S)     0.00006       2.85226
   143    C    4  S      Ryd( 3S)     0.00002       1.82887
   144    C    4  px     Val( 2p)     1.09096      -0.07395
   145    C    4  px     Ryd( 5p)     0.00415       1.73711
   146    C    4  px     Ryd( 3p)     0.00005       1.19090
   147    C    4  px     Ryd( 4p)     0.00002       1.38780
   148    C    4  py     Val( 2p)     1.15748      -0.08526
   149    C    4  py     Ryd( 5p)     0.00485       1.71996
   150    C    4  py     Ryd( 3p)     0.00003       1.59686
   151    C    4  py     Ryd( 4p)     0.00003       1.62901
   152    C    4  pz     Val( 2p)     1.00058      -0.12647
   153    C    4  pz     Ryd( 3p)     0.00078       1.02019
   154    C    4  pz     Ryd( 4p)     0.00001       1.08473
   155    C    4  pz     Ryd( 5p)     0.00002       1.09697
   156    C    4  dxy    Ryd( 4d)     0.00206       2.63968
   157    C    4  dxy    Ryd( 5d)     0.00023       3.67098
   158    C    4  dxy    Ryd( 3d)     0.00007       2.50140
   159    C    4  dxz    Ryd( 3d)     0.00034       1.43554
   160    C    4  dxz    Ryd( 5d)     0.00001       2.94192
   161    C    4  dxz    Ryd( 4d)     0.00002       1.56380
   162    C    4  dyz    Ryd( 3d)     0.00029       1.45320
   163    C    4  dyz    Ryd( 5d)     0.00004       2.96314
   164    C    4  dyz    Ryd( 4d)     0.00001       1.46571
   165    C    4  dx2y2  Ryd( 4d)     0.00207       3.12812
   166    C    4  dx2y2  Ryd( 5d)     0.00018       3.85346
   167    C    4  dx2y2  Ryd( 3d)     0.00005       2.05108
   168    C    4  dz2    Ryd( 3d)     0.00098       1.81379
   169    C    4  dz2    Ryd( 5d)     0.00006       4.09154
   170    C    4  dz2    Ryd( 4d)     0.00012       3.37158
   171    C    4  f(0)   Ryd( 5f)     0.00012       3.47047
   172    C    4  f(0)   Ryd( 4f)     0.00001       2.16323
   173    C    4  f(C1)  Ryd( 5f)     0.00025       3.76012
   174    C    4  f(C1)  Ryd( 4f)     0.00001       2.70321
   175    C    4  f(S1)  Ryd( 5f)     0.00022       3.69442
   176    C    4  f(S1)  Ryd( 4f)     0.00002       2.79234
   177    C    4  f(C2)  Ryd( 5f)     0.00001       3.59208
   178    C    4  f(C2)  Ryd( 4f)     0.00001       2.24136
   179    C    4  f(S2)  Ryd( 5f)     0.00002       3.63337
   180    C    4  f(S2)  Ryd( 4f)     0.00002       2.34087
   181    C    4  f(C3)  Ryd( 4f)     0.00014       4.23059
   182    C    4  f(C3)  Ryd( 5f)     0.00005       5.72963
   183    C    4  f(S3)  Ryd( 5f)     0.00007       4.36217
   184    C    4  f(S3)  Ryd( 4f)     0.00011       3.96205
 
   185    C    5  S      Cor( 1S)     1.99910     -10.38543
   186    C    5  S      Val( 2S)     0.94073      -0.18316
   187    C    5  S      Ryd( 4S)     0.00133       1.92500
   188    C    5  S      Ryd( 5S)     0.00011       2.93260
   189    C    5  S      Ryd( 3S)     0.00002       1.90674
   190    C    5  px     Val( 2p)     1.09502      -0.07414
   191    C    5  px     Ryd( 4p)     0.00365       1.96286
   192    C    5  px     Ryd( 5p)     0.00010       2.37773
   193    C    5  px     Ryd( 3p)     0.00008       1.05601
   194    C    5  py     Val( 2p)     1.13321      -0.07038
   195    C    5  py     Ryd( 4p)     0.00464       1.82005
   196    C    5  py     Ryd( 5p)     0.00006       2.36095
   197    C    5  py     Ryd( 3p)     0.00004       1.20989
   198    C    5  pz     Val( 2p)     0.94717      -0.12379
   199    C    5  pz     Ryd( 4p)     0.00084       1.03091
   200    C    5  pz     Ryd( 5p)     0.00007       1.56355
   201    C    5  pz     Ryd( 3p)     0.00004       0.69415
   202    C    5  dxy    Ryd( 3d)     0.00170       2.66940
   203    C    5  dxy    Ryd( 5d)     0.00013       3.93595
   204    C    5  dxy    Ryd( 4d)     0.00008       3.34875
   205    C    5  dxz    Ryd( 3d)     0.00056       1.47739
   206    C    5  dxz    Ryd( 5d)     0.00004       3.15789
   207    C    5  dxz    Ryd( 4d)     0.00004       1.78431
   208    C    5  dyz    Ryd( 3d)     0.00029       1.36401
   209    C    5  dyz    Ryd( 5d)     0.00008       3.20738
   210    C    5  dyz    Ryd( 4d)     0.00002       1.48313
   211    C    5  dx2y2  Ryd( 4d)     0.00198       3.46698
   212    C    5  dx2y2  Ryd( 5d)     0.00019       4.27021
   213    C    5  dx2y2  Ryd( 3d)     0.00008       2.69383
   214    C    5  dz2    Ryd( 3d)     0.00097       1.82032
   215    C    5  dz2    Ryd( 4d)     0.00012       3.93408
   216    C    5  dz2    Ryd( 5d)     0.00006       4.55156
   217    C    5  f(0)   Ryd( 4f)     0.00012       1.51092
   218    C    5  f(0)   Ryd( 5f)     0.00009       3.34279
   219    C    5  f(C1)  Ryd( 4f)     0.00048       2.01607
   220    C    5  f(C1)  Ryd( 5f)     0.00022       3.60240
   221    C    5  f(S1)  Ryd( 4f)     0.00047       1.82983
   222    C    5  f(S1)  Ryd( 5f)     0.00016       3.47481
   223    C    5  f(C2)  Ryd( 4f)     0.00027       1.58086
   224    C    5  f(C2)  Ryd( 5f)     0.00004       3.36638
   225    C    5  f(S2)  Ryd( 4f)     0.00018       1.55177
   226    C    5  f(S2)  Ryd( 5f)     0.00004       3.38503
   227    C    5  f(C3)  Ryd( 4f)     0.00041       2.72266
   228    C    5  f(C3)  Ryd( 5f)     0.00013       3.95167
   229    C    5  f(S3)  Ryd( 4f)     0.00105       2.07858
   230    C    5  f(S3)  Ryd( 5f)     0.00023       4.24530
 
   231    C    6  S      Cor( 1S)     1.99883     -10.37103
   232    C    6  S      Val( 2S)     0.88769      -0.11620
   233    C    6  S      Ryd( 3S)     0.00110       2.11880
   234    C    6  S      Ryd( 4S)     0.00008       2.83875
   235    C    6  S      Ryd( 5S)     0.00002       3.68625
   236    C    6  px     Val( 2p)     1.10189      -0.10734
   237    C    6  px     Ryd( 4p)     0.00593       2.34814
   238    C    6  px     Ryd( 5p)     0.00007       2.37137
   239    C    6  px     Ryd( 3p)     0.00008       0.94937
   240    C    6  py     Val( 2p)     1.14099      -0.10478
   241    C    6  py     Ryd( 4p)     0.00492       2.15163
   242    C    6  py     Ryd( 5p)     0.00009       2.20254
   243    C    6  py     Ryd( 3p)     0.00003       0.90315
   244    C    6  pz     Val( 2p)     1.07089      -0.13577
   245    C    6  pz     Ryd( 4p)     0.00129       0.94317
   246    C    6  pz     Ryd( 5p)     0.00013       1.99645
   247    C    6  pz     Ryd( 3p)     0.00001       0.55601
   248    C    6  dxy    Ryd( 3d)     0.00060       2.81464
   249    C    6  dxy    Ryd( 4d)     0.00041       3.66743
   250    C    6  dxy    Ryd( 5d)     0.00005       5.73052
   251    C    6  dxz    Ryd( 3d)     0.00015       1.50349
   252    C    6  dxz    Ryd( 5d)     0.00012       3.01977
   253    C    6  dxz    Ryd( 4d)     0.00008       2.20562
   254    C    6  dyz    Ryd( 3d)     0.00063       1.26793
   255    C    6  dyz    Ryd( 5d)     0.00010       2.91389
   256    C    6  dyz    Ryd( 4d)     0.00003       2.49619
   257    C    6  dx2y2  Ryd( 3d)     0.00284       2.76497
   258    C    6  dx2y2  Ryd( 4d)     0.00016       3.73462
   259    C    6  dx2y2  Ryd( 5d)     0.00001       5.13400
   260    C    6  dz2    Ryd( 3d)     0.00106       1.64985
   261    C    6  dz2    Ryd( 4d)     0.00017       4.04421
   262    C    6  dz2    Ryd( 5d)     0.00007       4.13826
   263    C    6  f(0)   Ryd( 4f)     0.00050       1.58156
   264    C    6  f(0)   Ryd( 5f)     0.00026       3.43252
   265    C    6  f(C1)  Ryd( 4f)     0.00040       2.05474
   266    C    6  f(C1)  Ryd( 5f)     0.00054       3.58997
   267    C    6  f(S1)  Ryd( 4f)     0.00081       1.98705
   268    C    6  f(S1)  Ryd( 5f)     0.00035       3.61782
   269    C    6  f(C2)  Ryd( 4f)     0.00066       1.55998
   270    C    6  f(C2)  Ryd( 5f)     0.00006       3.33370
   271    C    6  f(S2)  Ryd( 4f)     0.00080       1.50476
   272    C    6  f(S2)  Ryd( 5f)     0.00006       3.44981
   273    C    6  f(C3)  Ryd( 4f)     0.00118       3.01098
   274    C    6  f(C3)  Ryd( 5f)     0.00011       4.57007
   275    C    6  f(S3)  Ryd( 4f)     0.00187       2.56162
   276    C    6  f(S3)  Ryd( 5f)     0.00029       4.20158
 
   277    C    7  S      Cor( 1S)     1.99907     -10.53202
   278    C    7  S      Val( 2S)     0.77983      -0.09705
   279    C    7  S      Ryd( 4S)     0.00371       2.03871
   280    C    7  S      Ryd( 3S)     0.00017       1.84627
   281    C    7  S      Ryd( 5S)     0.00009       2.49164
   282    C    7  px     Val( 2p)     0.91612      -0.04329
   283    C    7  px     Ryd( 5p)     0.00583       1.61614
   284    C    7  px     Ryd( 3p)     0.00027       0.89070
   285    C    7  px     Ryd( 4p)     0.00002       1.55455
   286    C    7  py     Val( 2p)     0.72631      -0.01951
   287    C    7  py     Ryd( 4p)     0.01316       1.58325
   288    C    7  py     Ryd( 3p)     0.00007       0.83796
   289    C    7  py     Ryd( 5p)     0.00008       2.30431
   290    C    7  pz     Val( 2p)     0.75405      -0.12100
   291    C    7  pz     Ryd( 4p)     0.00059       1.13006
   292    C    7  pz     Ryd( 3p)     0.00007       0.52652
   293    C    7  pz     Ryd( 5p)     0.00002       1.27324
   294    C    7  dxy    Ryd( 5d)     0.00074       4.24553
   295    C    7  dxy    Ryd( 3d)     0.00006       3.22875
   296    C    7  dxy    Ryd( 4d)     0.00004       3.57678
   297    C    7  dxz    Ryd( 5d)     0.00059       3.27729
   298    C    7  dxz    Ryd( 4d)     0.00006       2.04041
   299    C    7  dxz    Ryd( 3d)     0.00006       1.71045
   300    C    7  dyz    Ryd( 5d)     0.00130       3.39131
   301    C    7  dyz    Ryd( 4d)     0.00004       2.22871
   302    C    7  dyz    Ryd( 3d)     0.00002       1.93155
   303    C    7  dx2y2  Ryd( 5d)     0.00154       4.27157
   304    C    7  dx2y2  Ryd( 4d)     0.00007       3.44810
   305    C    7  dx2y2  Ryd( 3d)     0.00004       2.48064
   306    C    7  dz2    Ryd( 5d)     0.00017       4.46860
   307    C    7  dz2    Ryd( 4d)     0.00016       3.52717
   308    C    7  dz2    Ryd( 3d)     0.00011       2.94069
   309    C    7  f(0)   Ryd( 5f)     0.00011       3.29978
   310    C    7  f(0)   Ryd( 4f)     0.00003       2.68328
   311    C    7  f(C1)  Ryd( 5f)     0.00018       3.67378
   312    C    7  f(C1)  Ryd( 4f)     0.00001       3.37844
   313    C    7  f(S1)  Ryd( 5f)     0.00007       3.52255
   314    C    7  f(S1)  Ryd( 4f)     0.00004       3.43547
   315    C    7  f(C2)  Ryd( 5f)     0.00002       3.22666
   316    C    7  f(C2)  Ryd( 4f)     0.00010       2.81747
   317    C    7  f(S2)  Ryd( 5f)     0.00002       3.47555
   318    C    7  f(S2)  Ryd( 4f)     0.00000       3.04499
   319    C    7  f(C3)  Ryd( 4f)     0.00007       4.65112
   320    C    7  f(C3)  Ryd( 5f)     0.00003       8.38610
   321    C    7  f(S3)  Ryd( 4f)     0.00008       4.29894
   322    C    7  f(S3)  Ryd( 5f)     0.00004       4.30123
 
   323    O    8  S      Cor( 1S)     1.99979     -19.32093
   324    O    8  S      Val( 2S)     1.70587      -0.99588
   325    O    8  S      Ryd( 4S)     0.00059       2.96677
   326    O    8  S      Ryd( 3S)     0.00021       1.43306
   327    O    8  S      Ryd( 5S)     0.00001       8.72510
   328    O    8  px     Val( 2p)     1.77750      -0.33492
   329    O    8  px     Ryd( 4p)     0.00117       1.23468
   330    O    8  px     Ryd( 3p)     0.00008       0.60827
   331    O    8  px     Ryd( 5p)     0.00003       4.84361
   332    O    8  py     Val( 2p)     1.64125      -0.33337
   333    O    8  py     Ryd( 4p)     0.00135       1.29956
   334    O    8  py     Ryd( 3p)     0.00015       0.60045
   335    O    8  py     Ryd( 5p)     0.00005       5.45505
   336    O    8  pz     Val( 2p)     1.45747      -0.28526
   337    O    8  pz     Ryd( 4p)     0.00077       0.88230
   338    O    8  pz     Ryd( 3p)     0.00003       0.50507
   339    O    8  pz     Ryd( 5p)     0.00000       4.18317
   340    O    8  dxy    Ryd( 3d)     0.00769       2.03302
   341    O    8  dxy    Ryd( 4d)     0.00014       3.02896
   342    O    8  dxy    Ryd( 5d)     0.00003       6.62333
   343    O    8  dxz    Ryd( 3d)     0.00195       1.42492
   344    O    8  dxz    Ryd( 4d)     0.00002       1.66595
   345    O    8  dxz    Ryd( 5d)     0.00001       6.47916
   346    O    8  dyz    Ryd( 3d)     0.00510       1.51913
   347    O    8  dyz    Ryd( 4d)     0.00005       1.70820
   348    O    8  dyz    Ryd( 5d)     0.00003       6.44035
   349    O    8  dx2y2  Ryd( 3d)     0.00591       1.84965
   350    O    8  dx2y2  Ryd( 4d)     0.00006       2.16831
   351    O    8  dx2y2  Ryd( 5d)     0.00005       6.51901
   352    O    8  dz2    Ryd( 3d)     0.00279       1.63630
   353    O    8  dz2    Ryd( 4d)     0.00009       2.47027
   354    O    8  dz2    Ryd( 5d)     0.00001       6.57164
   355    O    8  f(0)   Ryd( 4f)     0.00013       3.12981
   356    O    8  f(0)   Ryd( 5f)     0.00000       5.51345
   357    O    8  f(C1)  Ryd( 4f)     0.00007       3.27162
   358    O    8  f(C1)  Ryd( 5f)     0.00001       5.59690
   359    O    8  f(S1)  Ryd( 4f)     0.00011       3.53093
   360    O    8  f(S1)  Ryd( 5f)     0.00001       5.76766
   361    O    8  f(C2)  Ryd( 4f)     0.00011       3.09977
   362    O    8  f(C2)  Ryd( 5f)     0.00002       5.70690
   363    O    8  f(S2)  Ryd( 4f)     0.00028       3.17677
   364    O    8  f(S2)  Ryd( 5f)     0.00001       5.61103
   365    O    8  f(C3)  Ryd( 4f)     0.00039       3.91689
   366    O    8  f(C3)  Ryd( 5f)     0.00001       6.07227
   367    O    8  f(S3)  Ryd( 4f)     0.00043       3.60010
   368    O    8  f(S3)  Ryd( 5f)     0.00002       5.95139
 
   369    O    9  S      Cor( 1S)     1.99978     -19.45325
   370    O    9  S      Val( 2S)     1.67690      -1.02994
   371    O    9  S      Ryd( 3S)     0.00046       1.39423
   372    O    9  S      Ryd( 4S)     0.00008       2.63568
   373    O    9  S      Ryd( 5S)     0.00001       9.52191
   374    O    9  px     Val( 2p)     1.46437      -0.35388
   375    O    9  px     Ryd( 4p)     0.00070       1.13354
   376    O    9  px     Ryd( 3p)     0.00011       0.60951
   377    O    9  px     Ryd( 5p)     0.00004       5.28080
   378    O    9  py     Val( 2p)     1.69571      -0.39873
   379    O    9  py     Ryd( 4p)     0.00079       0.99999
   380    O    9  py     Ryd( 3p)     0.00015       0.53676
   381    O    9  py     Ryd( 5p)     0.00007       5.06072
   382    O    9  pz     Val( 2p)     1.84664      -0.40800
   383    O    9  pz     Ryd( 4p)     0.00122       0.75794
   384    O    9  pz     Ryd( 3p)     0.00001       0.50066
   385    O    9  pz     Ryd( 5p)     0.00001       4.15681
   386    O    9  dxy    Ryd( 3d)     0.00629       1.98349
   387    O    9  dxy    Ryd( 4d)     0.00018       2.45871
   388    O    9  dxy    Ryd( 5d)     0.00003       6.81502
   389    O    9  dxz    Ryd( 3d)     0.00035       1.15635
   390    O    9  dxz    Ryd( 4d)     0.00006       1.91366
   391    O    9  dxz    Ryd( 5d)     0.00001       6.50979
   392    O    9  dyz    Ryd( 3d)     0.00488       1.28803
   393    O    9  dyz    Ryd( 4d)     0.00002       1.69686
   394    O    9  dyz    Ryd( 5d)     0.00004       6.51021
   395    O    9  dx2y2  Ryd( 3d)     0.00385       1.74027
   396    O    9  dx2y2  Ryd( 4d)     0.00007       2.07155
   397    O    9  dx2y2  Ryd( 5d)     0.00007       6.87178
   398    O    9  dz2    Ryd( 3d)     0.00300       1.50482
   399    O    9  dz2    Ryd( 4d)     0.00014       2.30977
   400    O    9  dz2    Ryd( 5d)     0.00001       6.73968
   401    O    9  f(0)   Ryd( 4f)     0.00055       2.75631
   402    O    9  f(0)   Ryd( 5f)     0.00001       5.95076
   403    O    9  f(C1)  Ryd( 4f)     0.00027       3.35712
   404    O    9  f(C1)  Ryd( 5f)     0.00001       6.21686
   405    O    9  f(S1)  Ryd( 4f)     0.00014       3.27289
   406    O    9  f(S1)  Ryd( 5f)     0.00001       6.12688
   407    O    9  f(C2)  Ryd( 4f)     0.00007       2.80914
   408    O    9  f(C2)  Ryd( 5f)     0.00001       6.11131
   409    O    9  f(S2)  Ryd( 4f)     0.00008       2.84118
   410    O    9  f(S2)  Ryd( 5f)     0.00001       5.97898
   411    O    9  f(C3)  Ryd( 4f)     0.00008       4.33002
   412    O    9  f(C3)  Ryd( 5f)     0.00005       6.52794
   413    O    9  f(S3)  Ryd( 4f)     0.00009       3.80809
   414    O    9  f(S3)  Ryd( 5f)     0.00002       6.46720
 
   415    H   10  S      Val( 1S)     0.76059       0.05355
   416    H   10  S      Ryd( 4S)     0.00043       1.98559
   417    H   10  S      Ryd( 2S)     0.00013       0.80341
   418    H   10  S      Ryd( 3S)     0.00003       1.49232
   419    H   10  px     Ryd( 2p)     0.00051       0.98055
   420    H   10  px     Ryd( 4p)     0.00008       4.17453
   421    H   10  px     Ryd( 3p)     0.00010       3.11805
   422    H   10  py     Ryd( 2p)     0.00075       0.94918
   423    H   10  py     Ryd( 4p)     0.00017       4.23203
   424    H   10  py     Ryd( 3p)     0.00006       4.20421
   425    H   10  pz     Ryd( 2p)     0.00013       0.64838
   426    H   10  pz     Ryd( 4p)     0.00002       3.93434
   427    H   10  pz     Ryd( 3p)     0.00005       2.06362
   428    H   10  dxy    Ryd( 3d)     0.00007       2.16141
   429    H   10  dxy    Ryd( 4d)     0.00002       4.45964
   430    H   10  dxz    Ryd( 3d)     0.00003       1.62261
   431    H   10  dxz    Ryd( 4d)     0.00001       3.66322
   432    H   10  dyz    Ryd( 3d)     0.00002       1.72974
   433    H   10  dyz    Ryd( 4d)     0.00002       3.91933
   434    H   10  dx2y2  Ryd( 3d)     0.00005       2.26923
   435    H   10  dx2y2  Ryd( 4d)     0.00003       4.48973
   436    H   10  dz2    Ryd( 3d)     0.00004       2.21533
   437    H   10  dz2    Ryd( 4d)     0.00002       4.17083
 
   438    H   11  S      Val( 1S)     0.78369       0.03602
   439    H   11  S      Ryd( 4S)     0.00032       2.03564
   440    H   11  S      Ryd( 2S)     0.00014       0.88062
   441    H   11  S      Ryd( 3S)     0.00001       1.21698
   442    H   11  px     Ryd( 2p)     0.00046       1.03722
   443    H   11  px     Ryd( 4p)     0.00007       3.91422
   444    H   11  px     Ryd( 3p)     0.00008       2.75301
   445    H   11  py     Ryd( 2p)     0.00068       1.09505
   446    H   11  py     Ryd( 4p)     0.00008       4.69497
   447    H   11  py     Ryd( 3p)     0.00006       3.00411
   448    H   11  pz     Ryd( 2p)     0.00017       0.85652
   449    H   11  pz     Ryd( 4p)     0.00009       3.05183
   450    H   11  pz     Ryd( 3p)     0.00001       2.29492
   451    H   11  dxy    Ryd( 3d)     0.00013       2.21734
   452    H   11  dxy    Ryd( 4d)     0.00003       4.29357
   453    H   11  dxz    Ryd( 3d)     0.00001       1.68063
   454    H   11  dxz    Ryd( 4d)     0.00000       3.50198
   455    H   11  dyz    Ryd( 3d)     0.00001       1.78850
   456    H   11  dyz    Ryd( 4d)     0.00000       3.71491
   457    H   11  dx2y2  Ryd( 3d)     0.00004       2.02461
   458    H   11  dx2y2  Ryd( 4d)     0.00001       4.37123
   459    H   11  dz2    Ryd( 3d)     0.00002       1.99143
   460    H   11  dz2    Ryd( 4d)     0.00002       3.71270
 
   461    H   12  S      Val( 1S)     0.78575       0.03277
   462    H   12  S      Ryd( 4S)     0.00031       2.03068
   463    H   12  S      Ryd( 2S)     0.00014       0.93882
   464    H   12  S      Ryd( 3S)     0.00001       0.99011
   465    H   12  px     Ryd( 2p)     0.00083       0.98344
   466    H   12  px     Ryd( 4p)     0.00013       4.41681
   467    H   12  px     Ryd( 3p)     0.00003       4.03743
   468    H   12  py     Ryd( 2p)     0.00032       0.94232
   469    H   12  py     Ryd( 4p)     0.00003       3.90166
   470    H   12  py     Ryd( 3p)     0.00011       2.17355
   471    H   12  pz     Ryd( 2p)     0.00011       0.76881
   472    H   12  pz     Ryd( 4p)     0.00005       3.74727
   473    H   12  pz     Ryd( 3p)     0.00005       1.71869
   474    H   12  dxy    Ryd( 3d)     0.00002       1.91581
   475    H   12  dxy    Ryd( 4d)     0.00002       4.37826
   476    H   12  dxz    Ryd( 3d)     0.00001       1.73203
   477    H   12  dxz    Ryd( 4d)     0.00001       3.93957
   478    H   12  dyz    Ryd( 3d)     0.00002       1.49235
   479    H   12  dyz    Ryd( 4d)     0.00000       3.42924
   480    H   12  dx2y2  Ryd( 3d)     0.00016       2.11773
   481    H   12  dx2y2  Ryd( 4d)     0.00002       4.28342
   482    H   12  dz2    Ryd( 3d)     0.00002       1.88066
   483    H   12  dz2    Ryd( 4d)     0.00003       3.77205
 
   484    H   13  S      Val( 1S)     0.78495       0.03500
   485    H   13  S      Ryd( 4S)     0.00034       2.02908
   486    H   13  S      Ryd( 2S)     0.00014       0.85016
   487    H   13  S      Ryd( 3S)     0.00001       1.23477
   488    H   13  px     Ryd( 2p)     0.00040       1.02885
   489    H   13  px     Ryd( 4p)     0.00007       3.68541
   490    H   13  px     Ryd( 3p)     0.00008       2.81561
   491    H   13  py     Ryd( 2p)     0.00078       1.08424
   492    H   13  py     Ryd( 4p)     0.00008       4.85432
   493    H   13  py     Ryd( 3p)     0.00006       3.06055
   494    H   13  pz     Ryd( 2p)     0.00018       0.84497
   495    H   13  pz     Ryd( 4p)     0.00009       2.91698
   496    H   13  pz     Ryd( 3p)     0.00001       2.44399
   497    H   13  dxy    Ryd( 3d)     0.00011       2.21899
   498    H   13  dxy    Ryd( 4d)     0.00003       4.28079
   499    H   13  dxz    Ryd( 3d)     0.00001       1.69550
   500    H   13  dxz    Ryd( 4d)     0.00000       3.42191
   501    H   13  dyz    Ryd( 3d)     0.00001       1.83651
   502    H   13  dyz    Ryd( 4d)     0.00000       3.72421
   503    H   13  dx2y2  Ryd( 3d)     0.00005       2.07519
   504    H   13  dx2y2  Ryd( 4d)     0.00001       4.32948
   505    H   13  dz2    Ryd( 3d)     0.00002       2.01685
   506    H   13  dz2    Ryd( 4d)     0.00003       3.68466
 
   507    H   14  S      Val( 1S)     0.76837       0.04461
   508    H   14  S      Ryd( 4S)     0.00044       1.96316
   509    H   14  S      Ryd( 2S)     0.00012       0.83017
   510    H   14  S      Ryd( 3S)     0.00003       1.50482
   511    H   14  px     Ryd( 2p)     0.00062       0.97785
   512    H   14  px     Ryd( 4p)     0.00010       4.18960
   513    H   14  px     Ryd( 3p)     0.00008       3.23384
   514    H   14  py     Ryd( 2p)     0.00067       0.92727
   515    H   14  py     Ryd( 4p)     0.00016       4.21956
   516    H   14  py     Ryd( 3p)     0.00005       4.04224
   517    H   14  pz     Ryd( 2p)     0.00021       0.61234
   518    H   14  pz     Ryd( 4p)     0.00003       3.95259
   519    H   14  pz     Ryd( 3p)     0.00005       2.04739
   520    H   14  dxy    Ryd( 3d)     0.00010       2.18580
   521    H   14  dxy    Ryd( 4d)     0.00003       4.50956
   522    H   14  dxz    Ryd( 3d)     0.00004       1.57043
   523    H   14  dxz    Ryd( 4d)     0.00001       3.77780
   524    H   14  dyz    Ryd( 3d)     0.00002       1.63038
   525    H   14  dyz    Ryd( 4d)     0.00001       3.97287
   526    H   14  dx2y2  Ryd( 3d)     0.00003       2.18599
   527    H   14  dx2y2  Ryd( 4d)     0.00003       4.54406
   528    H   14  dz2    Ryd( 3d)     0.00004       2.24546
   529    H   14  dz2    Ryd( 4d)     0.00002       4.19719
 
   530    H   15  S      Val( 1S)     0.49157       0.13744
   531    H   15  S      Ryd( 4S)     0.00122       1.79833
   532    H   15  S      Ryd( 3S)     0.00020       1.62951
   533    H   15  S      Ryd( 2S)     0.00007       0.52860
   534    H   15  px     Ryd( 2p)     0.00051       1.73472
   535    H   15  px     Ryd( 4p)     0.00032       4.61037
   536    H   15  px     Ryd( 3p)     0.00001       3.13810
   537    H   15  py     Ryd( 2p)     0.00029       1.33038
   538    H   15  py     Ryd( 4p)     0.00007       3.79634
   539    H   15  py     Ryd( 3p)     0.00001       2.75604
   540    H   15  pz     Ryd( 2p)     0.00062       1.04324
   541    H   15  pz     Ryd( 4p)     0.00007       3.50503
   542    H   15  pz     Ryd( 3p)     0.00001       2.44687
   543    H   15  dxy    Ryd( 3d)     0.00008       1.44228
   544    H   15  dxy    Ryd( 4d)     0.00000       4.41075
   545    H   15  dxz    Ryd( 3d)     0.00014       1.14814
   546    H   15  dxz    Ryd( 4d)     0.00000       4.22535
   547    H   15  dyz    Ryd( 3d)     0.00003       1.16384
   548    H   15  dyz    Ryd( 4d)     0.00000       3.80474
   549    H   15  dx2y2  Ryd( 3d)     0.00010       1.75360
   550    H   15  dx2y2  Ryd( 4d)     0.00001       4.57335
   551    H   15  dz2    Ryd( 3d)     0.00011       1.63498
   552    H   15  dz2    Ryd( 4d)     0.00001       4.02801

 WARNING:  1 low occupancy (<1.9990e) core orbital  found on  C    6

 WARNING:  Population inversion found on atom  C    1
           Population inversion found on atom  C    2
           Population inversion found on atom  C    3
           Population inversion found on atom  C    4
           Population inversion found on atom  C    5
           Population inversion found on atom  C    6
           Population inversion found on atom  C    7
           Population inversion found on atom  O    8
           Population inversion found on atom  O    9
           Population inversion found on atom  H   10
           Population inversion found on atom  H   11
           Population inversion found on atom  H   12
           Population inversion found on atom  H   13
           Population inversion found on atom  H   14
           Population inversion found on atom  H   15


 Summary of Natural Population Analysis:                  
                                                          
                                       Natural Population 
                Natural  -----------------------------------------------
    Atom  No    Charge         Core      Valence    Rydberg      Total
 -----------------------------------------------------------------------
      C    1   -0.12285      1.99909     4.10207    0.02169     6.12285
      C    2   -0.21205      1.99912     4.19404    0.01889     6.21205
      C    3   -0.17008      1.99911     4.15171    0.01926     6.17008
      C    4   -0.21371      1.99912     4.19545    0.01914     6.21371
      C    5   -0.13642      1.99910     4.11612    0.02120     6.13642
      C    6   -0.22843      1.99883     4.20147    0.02813     6.22843
      C    7    0.79473      1.99907     3.17631    0.02989     5.20527
      O    8   -0.61184      1.99979     6.58210    0.02996     8.61184
      O    9   -0.70747      1.99978     6.68362    0.02407     8.70747
      H   10    0.23664      0.00000     0.76059    0.00277     0.76336
      H   11    0.21386      0.00000     0.78369    0.00245     0.78614
      H   12    0.21183      0.00000     0.78575    0.00242     0.78817
      H   13    0.21253      0.00000     0.78495    0.00252     0.78747
      H   14    0.22873      0.00000     0.76837    0.00290     0.77127
      H   15    0.50454      0.00000     0.49157    0.00389     0.49546
 =======================================================================
   * Total *    0.00000     17.99302    45.77781    0.22917    64.00000

                                 Natural Population      
 --------------------------------------------------------
   Core                      17.99302 ( 99.9612% of  18)
   Valence                   45.77781 ( 99.5170% of  46)
   Natural Minimal Basis     63.77083 ( 99.6419% of  64)
   Natural Rydberg Basis      0.22917 (  0.3581% of  64)
 --------------------------------------------------------

    Atom  No          Natural Electron Configuration
 ----------------------------------------------------------------------------
      C    1      [core]2S( 0.94)2p( 3.16)4p( 0.01)
      C    2      [core]2S( 0.95)2p( 3.25)5p( 0.01)
      C    3      [core]2S( 0.95)2p( 3.20)4p( 0.01)
      C    4      [core]2S( 0.95)2p( 3.25)5p( 0.01)
      C    5      [core]2S( 0.94)2p( 3.18)4p( 0.01)
      C    6      [core]2S( 0.89)2p( 3.31)3d( 0.01)4p( 0.01)4f( 0.01)
      C    7      [core]2S( 0.78)2p( 2.40)4p( 0.01)5p( 0.01)
      O    8      [core]2S( 1.71)2p( 4.88)3d( 0.02)
      O    9      [core]2S( 1.68)2p( 5.01)3d( 0.02)
      H   10            1S( 0.76)
      H   11            1S( 0.78)
      H   12            1S( 0.79)
      H   13            1S( 0.78)
      H   14            1S( 0.77)
      H   15            1S( 0.49)


 NATURAL BOND ORBITAL ANALYSIS:

                       Occupancies       Lewis Structure    Low   High
           Occ.    -------------------  -----------------   occ   occ
  Cycle   Thresh.   Lewis   Non-Lewis     CR  BD  3C  LP    (L)   (NL)   Dev
 =============================================================================
   1(1)    1.90    60.05914   3.94086      9  17   0   6     8      6    0.46
   2(2)    1.90    60.05914   3.94086      9  17   0   6     8      6    0.46
   3(1)    1.80    60.42367   3.57633      9  16   0   7     3      4    0.46
   4(2)    1.80    60.42367   3.57633      9  16   0   7     3      4    0.46
   5(1)    1.70    60.42367   3.57633      9  16   0   7     3      4    0.46
   6(2)    1.70    60.42367   3.57633      9  16   0   7     3      4    0.46
   7(1)    1.60    62.28232   1.71768      9  19   0   4     0      4    0.45
   8(2)    1.60    62.25220   1.74780      9  19   0   4     0      4    0.46
   9(3)    1.60    61.71774   2.28226      9  18   0   5     1      4    0.43
  10(4)    1.60    62.28232   1.71768      9  19   0   4     0      4    0.45
  11(5)    1.60    61.71774   2.28226      9  18   0   5     1      4    0.43
  12(6)    1.60    62.28232   1.71768      9  19   0   4     0      4    0.45
  13(7)    1.60    61.71774   2.28226      9  18   0   5     1      4    0.43
  14(8)    1.60    62.28232   1.71768      9  19   0   4     0      4    0.45
  15(9)    1.60    61.71774   2.28226      9  18   0   5     1      4    0.43
  16(1)    1.50    61.79308   2.20692      9  18   0   5     0      5    0.73
  17(2)    1.50    61.79308   2.20692      9  18   0   5     0      5    0.73
  18(1)    1.60    62.28232   1.71768      9  19   0   4     0      4    0.45
 -----------------------------------------------------------------------------

 Structure accepted: RESONANCE keyword permits strongly delocalized structure

 WARNING:  1 low occupancy (<1.9990e) core orbital  found on  C    6

 --------------------------------------------------------
   Core                     17.99306 ( 99.961% of  18)
   Valence Lewis            44.28926 ( 96.281% of  46)
  ==================       ============================
   Total Lewis              62.28232 ( 97.316% of  64)
  -----------------------------------------------------
   Valence non-Lewis         1.59517 (  2.492% of  64)
   Rydberg non-Lewis         0.12252 (  0.191% of  64)
  ==================       ============================
   Total non-Lewis           1.71768 (  2.684% of  64)
 --------------------------------------------------------


       (Occupancy)   Bond orbital/ Coefficients/ Hybrids
 ---------------------------------------------------------------------------------
     1. (1.97830) BD ( 1) C   1 - C   2  
                ( 50.02%)   0.7072* C   1 s( 36.73%)p 1.72( 63.08%)d 0.00(  0.14%)
                                                  f 0.00(  0.06%)
                                            0.0000  0.6058 -0.0168  0.0001  0.0015
                                            0.7931 -0.0183 -0.0053  0.0031 -0.0222
                                           -0.0299  0.0012  0.0009  0.0000  0.0000
                                            0.0000  0.0000 -0.0135  0.0020 -0.0039
                                            0.0000  0.0000  0.0000  0.0000  0.0000
                                            0.0000  0.0265  0.0035 -0.0034 -0.0218
                                           -0.0011 -0.0018  0.0000  0.0000 -0.0139
                                           -0.0110  0.0027  0.0002  0.0000  0.0000
                                            0.0000  0.0000  0.0103  0.0086 -0.0081
                                            0.0029
                ( 49.98%)   0.7070* C   2 s( 36.62%)p 1.73( 63.20%)d 0.00(  0.16%)
                                                  f 0.00(  0.03%)
                                            0.0000  0.6050 -0.0110  0.0011 -0.0001
                                           -0.7912  0.0164 -0.0029  0.0016  0.0687
                                           -0.0316  0.0019  0.0008 -0.0001  0.0000
                                            0.0000  0.0000  0.0003  0.0057  0.0023
                                            0.0000  0.0000  0.0000  0.0000  0.0000
                                            0.0000  0.0319  0.0056 -0.0007 -0.0213
                                           -0.0029  0.0002  0.0000  0.0000  0.0125
                                            0.0013 -0.0027  0.0008  0.0000  0.0000
                                            0.0000  0.0000 -0.0063 -0.0015  0.0053
                                           -0.0052
     2. (1.64952) BD ( 2) C   1 - C   2  
                ( 47.63%)   0.6901* C   1 s(  0.00%)p 1.00( 99.91%)d 0.00(  0.05%)
                                                  f 0.00(  0.04%)
                                            0.0000  0.0000  0.0000  0.0000  0.0000
                                            0.0000  0.0000  0.0000  0.0000  0.0001
                                            0.0000  0.0000  0.0000  0.9996 -0.0009
                                            0.0052  0.0014  0.0000  0.0000  0.0000
                                            0.0171  0.0043  0.0000 -0.0119 -0.0022
                                           -0.0026  0.0000  0.0000  0.0000  0.0000
                                            0.0000  0.0000 -0.0099 -0.0103  0.0000
                                            0.0000  0.0000  0.0000 -0.0094  0.0056
                                           -0.0063  0.0049  0.0000  0.0000  0.0000
                                            0.0000
                ( 52.37%)   0.7237* C   2 s(  0.00%)p 1.00( 99.95%)d 0.00(  0.03%)
                                                  f 0.00(  0.01%)
                                            0.0000  0.0000  0.0000  0.0000  0.0000
                                            0.0000  0.0000  0.0000  0.0000  0.0001
                                            0.0000  0.0000  0.0000  0.9997  0.0066
                                            0.0012  0.0046  0.0000  0.0000  0.0000
                                           -0.0161 -0.0032 -0.0004 -0.0062 -0.0063
                                            0.0001  0.0000  0.0000  0.0000  0.0000
                                            0.0000  0.0000 -0.0110 -0.0021  0.0000
[...]
 ! D25   D(1,6,7,8)              0.0015         -DE/DX =    0.0                 !
 ! D26   D(1,6,7,9)            179.984          -DE/DX =    0.0                 !
 ! D27   D(5,6,7,8)            180.0007         -DE/DX =    0.0                 !
 ! D28   D(5,6,7,9)             -0.0167         -DE/DX =    0.0                 !
 ! D29   D(6,7,9,15)          -179.9916         -DE/DX =    0.0                 !
 ! D30   D(8,7,9,15)            -0.0084         -DE/DX =    0.0                 !
 --------------------------------------------------------------------------------
 GradGradGradGradGradGradGradGradGradGradGradGradGradGradGradGradGradGrad


 ----------------------------------------------------------------------

 Electric dipole moment (input orientation):
 (Debye = 10**-18 statcoulomb cm , SI units = C m)
                  (au)            (Debye)         (10**-30 SI)
   Tot        0.816730D+00      0.207592D+01      0.692453D+01
   x          0.552316D+00      0.140385D+01      0.468273D+01
   y         -0.601660D+00     -0.152927D+01     -0.510109D+01
   z          0.275829D-03      0.701086D-03      0.233857D-02

 Dipole polarizability, Alpha (input orientation).
 (esu units = cm**3 , SI units = C**2 m**2 J**-1)
 Alpha(0;0):
               (au)            (10**-24 esu)      (10**-40 SI)
   iso        0.875127D+02      0.129680D+02      0.144289D+02
   aniso      0.563768D+02      0.835418D+01      0.929528D+01
   xx         0.947290D+02      0.140374D+02      0.156187D+02
   yx        -0.936476D+00     -0.138771D+00     -0.154404D+00
   yy         0.115834D+03      0.171649D+02      0.190985D+02
   zx         0.296544D-01      0.439433D-02      0.488935D-02
   zy         0.140068D-01      0.207560D-02      0.230941D-02
   zz         0.519747D+02      0.770186D+01      0.856948D+01

 ----------------------------------------------------------------------

 Dipole orientation:
     6         -1.51809738         -1.39516894         -1.09903618
     6         -2.80946036         -2.58223176          0.84223175
     6         -2.21201406         -2.03322083          3.33950182
     6         -0.32446443         -0.29829931          3.89718886
     6          0.97354061          0.89488926          1.95977094
     6          0.37339120          0.34337661         -0.54016974
     6          1.70478470          1.56718947         -2.68694039
     8          1.26995369          1.16764247         -4.87922252
     8          3.49703638          3.21540153         -1.94250825
     1         -1.94325407         -1.78587489         -3.05861153
     1         -4.28009497         -3.93395574          0.41423387
     1         -3.22132324         -2.96101519          4.85546388
     1          0.13565541          0.12451265          5.84218902
     1          2.44565108          2.24797630          2.36992537
     1          4.24288899          3.90126846         -3.46094770

 Electric dipole moment (dipole orientation):
 (Debye = 10**-18 statcoulomb cm , SI units = C m)
                  (au)            (Debye)         (10**-30 SI)
   Tot        0.816730D+00      0.207592D+01      0.692453D+01
   x          0.000000D+00      0.000000D+00      0.000000D+00
   y          0.000000D+00      0.000000D+00      0.000000D+00
   z          0.816730D+00      0.207592D+01      0.692453D+01

 Dipole polarizability, Alpha (dipole orientation).
 (esu units = cm**3 , SI units = C**2 m**2 J**-1)
 Alpha(0;0):
               (au)            (10**-24 esu)      (10**-40 SI)
   iso        0.875127D+02      0.129680D+02      0.144289D+02
   aniso      0.563768D+02      0.835418D+01      0.929528D+01
   xx         0.798735D+02      0.118360D+02      0.131694D+02
   yx         0.256456D+02      0.380028D+01      0.422838D+01
   yy         0.755490D+02      0.111952D+02      0.124563D+02
   zx        -0.768055D+01     -0.113814D+01     -0.126635D+01
   zy        -0.706271D+01     -0.104658D+01     -0.116448D+01
   zz         0.107116D+03      0.158729D+02      0.176610D+02

 ----------------------------------------------------------------------
 Unable to Open any file for archive entry.
 1\1\GINC-AE40\Freq\RM062X\Aug-CC-pVTZ\C7H6O2\DHUANG\02-Apr-2025\0\\#N 
 Geom=AllCheck Guess=TCheck SCRF=Check GenChk RM062X/Aug-CC-pVTZ Freq\\
 H\\0,1\C,-1.1970563028,-0.3094031121,-0.0008109204\C,-1.1861429732,-1.
 693869866,-0.0010913357\C,0.0238272969,-2.3770153459,-0.0004254024\C,1
 .2228217043,-1.6769618067,0.0005228523\C,1.2168084515,-0.2907624487,0.
 0008150387\C,0.0044467092,0.3921060859,0.0001407151\C,-0.0588233915,1.
 8761302646,0.0003854055\O,-1.0735502985,2.5194223637,-0.0001537753\O,1
 .1567732945,2.4572786754,0.001668278\H,-2.1233984096,0.2478631013,-0.0
 013240513\H,-2.1179799644,-2.2418370127,-0.0018311425\H,0.0318896016,-
 3.4585862622,-0.0006465816\H,2.162452393,-2.2115593831,0.0010374011\H,
 2.1430431969,0.2648795163,0.0015548724\H,1.008388692,3.4118152302,0.00
 18586459\\Version=ES64L-G16RevC.01\State=1-A\HF=-420.8189061\RMSD=1.92
 3e-09\RMSF=9.067e-05\ZeroPoint=0.1165753\Thermal=0.1236592\ETot=-420.6
 952469\HTot=-420.6943027\GTot=-420.7343647\Dipole=0.552316,-0.6016604,
 0.0002758\DipoleDeriv=-0.0139864,0.0854114,0.0000637,-0.1229895,0.0655
 337,-0.000057,0.0000168,0.0001256,-0.0795375,0.0143135,0.1257251,0.000
 1226,0.1805761,-0.1081982,0.000126,0.0001356,0.0000846,-0.1323374,0.06
 85871,0.0071789,0.000119,0.0011195,0.0962125,0.0000427,0.0001156,0.000
 0488,-0.1055031,0.0206743,-0.1351778,0.0000761,-0.16837,-0.1332103,-0.
 0001142,0.0000736,-0.0000929,-0.1362284,-0.0169789,-0.0819779,0.000026
 3,0.1191105,0.0930474,0.0001185,0.0000778,-0.0000035,-0.0823182,-0.050
 9016,-0.0063199,-0.0000173,0.0001307,-0.5578055,-0.0001195,-0.0000206,
 -0.0000948,-0.0468575,1.6667365,0.0960027,0.0011919,0.0379927,2.097191
 7,0.0004583,0.0011668,0.0005684,0.3338242,-0.9842712,0.3041298,-0.0004
 725,0.3726703,-1.1429853,0.0001341,-0.0003527,-0.0000114,-0.3722148,-1
 .0428372,-0.4930529,-0.0007053,-0.4998463,-0.8949914,-0.0005559,-0.000
 793,-0.0006117,-0.3612701,0.030768,0.0250353,-0.0000594,0.0395627,0.09
 17662,0.0000188,-0.0000586,0.0000078,0.1276171,-0.0287627,-0.0608564,-
 0.0001211,-0.0542035,0.022686,-0.0000602,-0.0001176,-0.0000697,0.13376
 79,0.071241,0.0012533,-0.0000383,0.0009119,-0.0722134,-0.0000422,-0.00
 00383,-0.0000399,0.1290749,-0.0333536,0.0604566,-0.0000986,0.0535248,0
 .0234051,0.0000118,-0.0001035,0.000015,0.1336218,0.0178576,-0.0388047,
 -0.0000807,-0.0379464,0.0824997,-0.0000305,-0.0000863,-0.0000286,0.129
 2374,0.2809135,0.1109964,-0.0000066,0.0777566,0.3370616,0.0000693,-0.0
 000157,0.0001025,0.3291238\Polar=94.7290174,-0.9364761,115.8343702,0.0
 296544,0.0140068,51.9747361\Quadrupole=-0.1914527,3.7330337,-3.541581,
 4.1519025,0.0029132,0.0050377\PG=C01 [X(C7H6O2)]\NImag=0\\0.72537540,-
 0.04181419,0.71487515,0.00038289,0.00008732,0.14486348,-0.13412895,-0.
 03779182,-0.00005501,0.73234947,0.03912085,-0.35008927,-0.00003156,0.0
 4025673,0.69849356,-0.00003873,-0.00008496,-0.06501174,0.00040612,0.00
 014386,0.13801916,0.04138951,0.08913111,0.00004262,-0.28957866,0.04761
 587,-0.00014010,0.67104005,0.03149640,-0.02573245,0.00001469,0.1261131
 2,-0.18293509,0.00005947,0.00014379,0.75380448,0.00003010,0.00005298,0
 .00602311,-0.00012405,0.00000712,-0.06444301,0.00035379,0.00012830,0.1
 4261924,-0.02034121,-0.03367162,-0.00001683,-0.05981852,0.02777311,-0.
 00003860,-0.28854566,-0.12861278,-0.00017718,0.73549969,-0.03613538,-0
 .06239204,-0.00003622,-0.02944633,0.07698451,-0.00000533,-0.05001205,-
 0.18607284,-0.00005904,-0.03784065,0.69414151,-0.00001705,-0.00003443,
 -0.00560388,-0.00005078,0.00003318,0.00646543,-0.00016091,-0.00011169,
 -0.06457760,0.00039237,0.00009317,0.13776180,-0.06092952,-0.02901326,-
 0.00005148,-0.02102529,0.03620150,-0.00000321,0.04251144,-0.03013164,0
 .00001815,-0.13345177,-0.03702022,-0.00005255,0.72990012,0.02740935,0.
 07317143,0.00003196,0.03448344,-0.06169494,0.00001166,-0.08850477,-0.0
 2730049,-0.00006635,0.04069390,-0.34520306,-0.00003305,0.04270398,0.70
 472579,-0.00004025,-0.00000565,0.00726951,-0.00000309,0.00001270,-0.00
 551113,0.00000607,-0.00002714,0.00606543,-0.00003685,-0.00008448,-0.06
 521965,0.00040329,0.00014621,0.14398495,-0.28316054,-0.04874721,-0.000
 15524,0.03976330,-0.08273964,0.00000472,-0.07865900,-0.00091753,-0.000
 04813,0.03760010,0.08454634,0.00003626,-0.28715674,0.04771198,-0.00013
 941,0.72357385,-0.11781086,-0.17027178,-0.00009828,-0.02556147,-0.0304
 2369,-0.00002439,-0.00072508,-0.00194775,0.00000048,0.02689838,-0.0288
 4498,0.00001111,0.11640721,-0.17026359,0.00005665,-0.00309851,0.655879
 74,-0.00017050,-0.00005120,-0.06714892,0.00001817,-0.00006399,0.007165
 68,-0.00004884,0.00000033,-0.00683300,0.00002516,0.00004894,0.00782190
 ,-0.00012564,0.00001188,-0.06570300,0.00039462,0.00010770,0.14780206,0
 .01199320,-0.02500435,0.00000291,-0.00554713,-0.00735379,-0.00001053,-
 0.00528318,0.00046866,-0.00000260,-0.00580011,0.00572426,-0.00000880,0
 .00898191,0.02675700,0.00001057,-0.09856204,-0.00883122,-0.00001088,0.
 88007632,-0.01651192,-0.02791961,-0.00001879,-0.00401644,0.00512708,-0
 .00000390,0.00007932,0.00184511,0.00000073,0.00339769,0.00551563,0.000
 00101,0.01487513,-0.01824185,0.00000660,0.00239721,-0.20706444,-0.0000
 1613,-0.19241937,0.75672955,0.00000253,-0.00002249,0.00167701,-0.00000
 982,-0.00000565,0.00827688,-0.00000300,0.00000061,-0.00120839,-0.00000
 966,0.00000387,0.00881030,0.00001104,0.00001385,-0.00004723,-0.0000081
 2,-0.00003889,-0.08457667,0.00045102,0.00002929,0.21803683,-0.00703211
 ,-0.00541037,-0.00000672,0.00106242,0.00209938,0.00000171,0.00043706,-
 0.00023794,0.00000012,0.00104646,0.00096542,0.00000224,0.00273377,0.00
 019754,0.00000022,-0.00727978,0.02773765,-0.00001337,-0.55411347,0.298
 81096,-0.00025750,0.67474502,0.00403210,-0.00004511,0.00000352,0.00100
 124,0.00058965,0.00000068,0.00170294,-0.00082576,0.00000089,0.00105667
 ,-0.00346846,0.00000043,-0.00749717,-0.00512032,-0.00000659,0.04626996
 ,-0.03458968,0.00001778,0.28944722,-0.31650453,0.00013924,-0.34195000,
 0.32110114,-0.00000363,-0.00000380,0.00018813,0.00000141,0.00000148,-0
 .00088173,0.00000044,-0.00000027,0.00014521,0.00000244,0.00000031,-0.0
 0179878,-0.00000197,-0.00000214,0.00262488,-0.00000948,0.00000966,0.02
 182635,-0.00025721,0.00014223,-0.08040858,0.00037933,-0.00016688,0.033
 93943,0.00183542,0.00067598,0.00000023,0.00118254,-0.00042485,0.000001
 26,0.00020777,-0.00030182,-0.00000003,0.00063691,-0.00129556,0.0000009
 2,-0.00433829,0.00147473,-0.00000251,-0.00418949,-0.01341919,-0.000019
 21,-0.23494462,-0.05190966,-0.00016337,-0.11574196,-0.00250635,-0.0001
 2206,0.41417993,0.00573441,-0.00513795,0.00000228,-0.00129508,-0.00245
 771,-0.00000060,-0.00132642,-0.00064904,-0.00000103,-0.00070097,0.0005
 4908,-0.00000004,-0.00133135,-0.00457444,-0.00000277,-0.04267128,-0.02
 886449,-0.00004971,-0.07952092,-0.16962311,-0.00010388,0.00838793,0.03
 931605,0.00001038,0.00699292,0.66602557,0.00000248,-0.00000166,0.00138
 032,0.00000071,-0.00000091,-0.00050805,-0.00000022,-0.00000048,0.00009
 998,0.00000081,-0.00000090,-0.00078516,-0.00000417,-0.00000044,0.00046
 093,-0.00002584,-0.00001995,0.01203740,-0.00017761,-0.00008146,-0.0658
 7957,-0.00011596,0.00000123,0.02982666,0.00032568,0.00021374,0.0380421
 8,-0.27249091,0.12489550,-0.00013110,0.00587261,-0.00257355,0.00000024
 ,0.00146410,-0.00095673,-0.00000460,0.00028612,-0.00073972,0.00000080,
 -0.00297081,-0.00397799,-0.00000720,-0.01930577,0.01497312,-0.00001300
 ,-0.00283453,0.00238326,0.00000114,0.00249674,0.00049431,0.00000188,0.
 00087703,-0.00005243,0.00000071,0.28686883,0.12694026,-0.13307113,0.00
 006692,0.02665774,-0.00897382,0.00001536,-0.00081148,-0.00543911,-0.00
 000326,-0.00087479,-0.00092526,-0.00000055,-0.00357638,-0.00141249,-0.
 00000400,-0.01262934,0.01283775,-0.00000691,-0.00214038,0.00052288,-0.
 00000089,0.00049566,-0.00195927,-0.00000010,0.00138192,0.00044739,0.00
 000141,-0.13540204,0.13677361,-0.00012978,0.00006648,-0.04117587,0.000
 00618,-0.00000500,0.00480976,-0.00000474,-0.00000338,0.00793379,0.0000
 0084,-0.00000022,-0.00111976,-0.00000692,-0.00000434,0.00653628,-0.000
 01957,0.00001062,0.00454757,0.00000032,0.00000339,-0.00411524,0.000002
 11,-0.00000002,-0.00022064,0.00000059,-0.00000024,0.00010661,0.0001478
 2,-0.00006915,0.02765375,0.00456478,0.00207958,0.00000116,-0.27180880,
 -0.12475982,-0.00018238,-0.01805164,-0.01602337,-0.00001779,-0.0032032
 1,0.00387355,-0.00000643,0.00009849,0.00101482,0.00000103,0.00183081,0
 .00062336,-0.00000415,0.00014280,0.00043501,-0.00000008,0.00004628,-0.
 00019036,-0.00000005,-0.00002774,-0.00003788,0.00000010,0.00055492,-0.
 00041284,0.00000325,0.28583444,-0.02863702,-0.01094424,-0.00002222,-0.
 12470448,-0.13249791,-0.00010330,0.01491207,0.01208013,0.00001177,0.00
 335610,-0.00070016,0.00000043,0.00100820,-0.00095755,0.00000072,0.0011
 9504,-0.00558227,-0.00000173,-0.00166616,0.00066184,-0.00000095,0.0003
 5399,-0.00030050,0.00000010,-0.00015242,-0.00087201,-0.00000041,0.0004
 3690,0.00114361,0.00000141,0.13399349,0.13681547,-0.00000528,-0.000001
 63,0.00355169,-0.00018244,-0.00010328,-0.03898019,-0.00001130,-0.00000
 898,0.00355499,-0.00000657,0.00000087,0.00759675,0.00000094,0.00000070
 ,-0.00110428,-0.00000379,-0.00000246,0.00810008,-0.00000058,0.00000044
 ,0.00033637,0.00000009,-0.00000020,0.00006586,0.00000006,-0.00000018,-
 0.00016799,0.00000340,0.00000083,-0.00434507,0.00020197,0.00011290,0.0
 2660164,-0.00465471,0.00292769,-0.00000769,0.00502763,0.02810120,0.000
 00633,-0.06018777,0.00218910,-0.00001237,0.00532111,-0.02794768,-0.000
 00537,-0.00452425,-0.00295642,-0.00000884,-0.00168692,-0.00001859,-0.0
 0000045,-0.00039285,0.00003438,0.00000056,0.00030452,0.00002540,0.0000
 0009,0.00020677,-0.00002443,0.00000011,0.00019021,0.00128177,0.0000004
 8,0.00095472,-0.00066286,0.00000323,0.05829279,0.00314002,0.00036933,0
 .00000056,-0.00269827,-0.01055471,-0.00000497,0.00214791,-0.34354067,-
 0.00006191,0.00293024,-0.01096330,-0.00000130,-0.00317369,0.00030068,-
 0.00000367,-0.00000530,0.00092649,0.00000042,0.00001472,-0.00004375,0.
 00000031,-0.00003145,-0.00012895,-0.00000009,-0.00002341,-0.00013231,-
 0.00000010,-0.00026554,-0.00052142,-0.00000026,0.00025365,0.00071252,0
 .00000118,-0.00231693,0.36338541,-0.00000752,0.00000067,0.00773655,0.,
 0.00001538,0.00447860,-0.00001240,-0.00006182,-0.04082848,0.00000100,-
 0.00002217,0.00447984,-0.00000909,-0.00000336,0.00780354,-0.00000030,0
 .00000028,-0.00104574,0.00000062,0.00000039,-0.00134327,0.00000006,0.0
 0000002,0.00017486,0.00000005,-0.00000011,0.00009513,0.00000016,0.0000
 0072,-0.00014283,0.00000342,0.00000061,-0.00408408,0.00002039,0.000068
 87,0.02696064,0.00009692,-0.00104749,0.00000058,-0.00312935,-0.0038902
 0,-0.00000799,-0.01810857,0.01566443,-0.00001120,-0.27525485,0.1226656
 8,-0.00013205,0.00414847,-0.00200638,-0.00000003,0.00187633,-0.0004825
 5,-0.00000411,0.00014843,-0.00049794,-0.00000029,-0.00004005,0.0000818
 0,0.00000019,0.00007861,0.00017722,0.00000012,-0.00000827,0.00007986,0
 .00000079,-0.00094500,0.00079190,-0.00000058,0.00095162,-0.00024959,0.
 00000337,0.28960643,-0.00098268,-0.00096322,-0.00000061,-0.00337780,-0
 .00082740,-0.00000410,-0.01534895,0.01208598,-0.00000846,0.12257655,-0
 .12905128,0.00006275,0.02881338,-0.01057194,0.00001626,-0.00114723,-0.
 00567801,-0.00000353,0.00162710,0.00081316,0.00000135,0.00027659,-0.00
 102948,-0.00000005,-0.00031476,-0.00024280,-0.00000036,0.00010017,0.00
 004007,0.00000033,-0.00080891,0.00043331,-0.00000049,0.00066015,0.0007
 2235,0.00000151,-0.13167571,0.13314823,0.00000059,-0.00000064,-0.00112
 249,-0.00000792,-0.00000432,0.00761642,-0.00001767,0.00001226,0.003546
 90,-0.00013219,0.00006288,-0.03873835,0.00000659,-0.00000431,0.0034753
 3,-0.00000443,-0.00000328,0.00790662,0.00000026,-0.00000020,0.00046346
 ,0.00000024,-0.00000014,-0.00029924,-0.00000005,0.00000003,0.00000074,
 0.00000080,0.00000029,-0.00115438,-0.00000090,0.00000058,0.00016011,0.
 00000355,0.00000085,-0.00415251,0.00014792,-0.00006544,0.02655713,-0.0
 0305463,0.00407850,-0.00000594,0.00026769,0.00073939,0.00000111,0.0014
 9905,0.00091090,-0.00000415,0.00565066,0.00250086,0.00000110,-0.273547
 43,-0.12576487,-0.00018322,-0.01848775,-0.01548941,-0.00001812,-0.0022
 9499,-0.00212804,0.00000032,0.00093488,0.00026755,0.00000040,0.0014715
 5,-0.00065377,0.00000081,-0.00090881,-0.00090164,-0.00000111,-0.000007
 64,-0.00010764,0.00000080,0.00016701,0.00025105,0.00000023,0.00058960,
 -0.00042349,0.00000322,0.28712730,0.00372658,-0.00109390,0.00000081,0.
 00089552,-0.00096293,0.00000066,0.00086869,-0.00550211,-0.00000232,-0.
 02714064,-0.00959509,-0.00002108,-0.12811795,-0.13372216,-0.00010514,0
 .01279970,0.01209519,0.00001021,0.00113343,0.00173546,0.00000241,-0.00
 086363,0.00008702,-0.00000082,0.00022245,-0.00406129,-0.00000136,0.000
 82815,0.00061787,0.00000056,-0.00007877,0.00005042,0.00000023,-0.00130
 408,-0.00055558,-0.00000100,0.00041486,0.00110204,0.00000147,0.1366051
 9,0.13980484,-0.00000605,0.00000095,0.00683239,0.00000112,0.00000073,-
 0.00113496,-0.00000390,-0.00000218,0.00788553,-0.00000498,-0.00000154,
 0.00478062,-0.00018477,-0.00010352,-0.04040531,-0.00001126,-0.00000877
 ,0.00363532,0.00000157,0.00000017,-0.00417800,-0.00000026,0.00000012,0
 .00060734,0.00000086,-0.00000204,0.00023332,-0.00000078,-0.00000053,0.
 00050556,0.00000078,0.00000020,-0.00121635,-0.00000007,0.00000008,-0.0
 0011325,0.00000333,0.00000083,-0.00428598,0.00020399,0.00011532,0.0269
 8381,0.00053734,-0.00128805,-0.00000036,-0.00048897,-0.00016617,0.0000
 0007,-0.00013451,0.00019542,-0.00000009,0.00037426,0.00016148,0.000000
 24,-0.00043012,0.00076369,0.00000022,-0.00615638,-0.00120285,-0.000009
 67,0.00843025,-0.05492959,-0.00001477,0.00040023,0.00776470,0.00000822
 ,-0.06143443,0.10632207,-0.00000774,-0.00009147,-0.00008833,-0.0000002
 8,0.00001679,-0.00011711,0.00000005,0.00003011,0.00002658,0.00000003,-
 0.00001033,0.00002559,-0.00000001,0.00059351,0.00001051,0.00000042,0.0
 5836372,0.00029209,-0.00075523,-0.00000037,-0.00051609,0.00022269,-0.0
 0000014,0.00012704,0.00012962,0.00000009,0.00015882,0.00002573,0.00000
 006,-0.00014773,0.00086492,0.00000030,-0.00296419,0.00179150,-0.000004
 06,-0.00823619,-0.03355341,-0.00001819,0.00916827,0.00287819,0.0000100
 1,0.05960002,-0.48972294,-0.00010834,-0.00014344,-0.00008067,-0.000000
 18,0.00003850,-0.00004265,0.00000007,0.00001130,0.00002391,0.00000003,
 -0.00002588,0.00001897,-0.00000003,0.00011542,0.00000023,0.00000019,-0
 .05747794,0.51819913,0.00000018,-0.00000195,0.00054071,-0.00000061,0.0
 0000025,-0.00036112,0.00000016,0.00000027,0.00001629,0.00000023,-0.000
 00013,0.00012654,-0.00000022,0.00000128,-0.00023026,-0.00001003,-0.000
 00048,0.00446436,0.00000094,-0.00006376,0.00415609,0.00000770,0.000009
 91,-0.00578975,-0.00002243,-0.00006582,-0.01494251,-0.00000025,-0.0000
 0012,0.00018048,0.00000008,-0.00000012,-0.00006953,0.00000005,0.000000
 03,-0.00001900,-0.00000004,0.00000001,0.00002623,0.00000056,0.00000006
 ,-0.00013006,0.00002368,0.00012056,0.01203154\\-0.00015856,-0.00007444
 ,0.00000175,-0.00001159,-0.00008273,-0.00000076,-0.00007674,-0.0000736
 2,0.00000005,0.00006901,0.00011472,-0.00000116,0.00023763,-0.00025791,
 0.00000083,0.00001239,0.00030868,0.00001326,-0.00023770,-0.00000177,-0
 .00004420,0.00009097,-0.00004174,0.00001626,0.00004728,0.00002286,0.00
 001355,0.00004560,0.00005265,0.00000004,0.00001328,0.00000929,-0.00000
 025,0.00000879,0.00000752,0.00000019,0.00000398,0.00000973,-0.00000008
 ,-0.00004076,0.00005670,0.00000025,-0.00000359,-0.00004994,0.00000027\
 \\@
 The archive entry for this job was punched.


 MISERY NO LONGER LOVES COMPANY.  NOWADAYS IT INSISTS ON IT.

                                              -- BAKER'S LAW
 Job cpu time:       0 days  9 hours 55 minutes 41.5 seconds.
 Elapsed time:       0 days  0 hours 29 minutes 47.6 seconds.
 File lengths (MBytes):  RWF=    333 Int=      0 D2E=      0 Chk=     25 Scr=      1
 Normal termination of Gaussian 16 at Wed Apr  2 12:42:23 2025.
