 Entering Gaussian System, Link 0=g16
 Initial command:
 /usr/local/gaussian16c01/g16/l1.exe "/scr/dhuang/Gau-111580.inp" -scrdir="/scr/dhuang/"
 Entering Link 1 = /usr/local/gaussian16c01/g16/l1.exe PID=    111581.
  
 Copyright (c) 1988-2019, Gaussian, Inc.  All Rights Reserved.
  
 This is part of the Gaussian(R) 16 program.  It is based on
 the Gaussian(R) 09 system (copyright 2009, Gaussian, Inc.),
 the Gaussian(R) 03 system (copyright 2003, Gaussian, Inc.),
 the Gaussian(R) 98 system (copyright 1998, Gaussian, Inc.),
 the Gaussian(R) 94 system (copyright 1995, Gaussian, Inc.),
 the Gaussian 92(TM) system (copyright 1992, Gaussian, Inc.),
 the Gaussian 90(TM) system (copyright 1990, Gaussian, Inc.),
 the Gaussian 88(TM) system (copyright 1988, Gaussian, Inc.),
 the Gaussian 86(TM) system (copyright 1986, Carnegie Mellon
 University), and the Gaussian 82(TM) system (copyright 1983,
 Carnegie Mellon University). Gaussian is a federally registered
 trademark of Gaussian, Inc.
  
 This software contains proprietary and confidential information,
 including trade secrets, belonging to Gaussian, Inc.
  
 This software is provided under written license and may be
 used, copied, transmitted, or stored only in accord with that
 written license.
  
 The following legend is applicable only to US Government
 contracts under FAR:
  
                    RESTRICTED RIGHTS LEGEND
  
 Use, reproduction and disclosure by the US Government is
 subject to restrictions as set forth in subparagraphs (a)
 and (c) of the Commercial Computer Software - Restricted
 Rights clause in FAR 52.227-19.
  
 Gaussian, Inc.
 340 Quinnipiac St., Bldg. 40, Wallingford CT 06492
  
  
 ---------------------------------------------------------------
 Warning -- This program may not be used in any manner that
 competes with the business of Gaussian, Inc. or will provide
 assistance to any competitor of Gaussian, Inc.  The licensee
 of this program is prohibited from giving any competitor of
 Gaussian, Inc. access to this program.  By using this program,
 the user acknowledges that Gaussian, Inc. is engaged in the
 business of creating and licensing software in the field of
 computational chemistry and represents and warrants to the
 licensee that it is not a competitor of Gaussian, Inc. and that
 it will not use this program in any manner prohibited above.
 ---------------------------------------------------------------
  

 Cite this work as:
 Gaussian 16, Revision C.01,
 M. J. Frisch, G. W. Trucks, H. B. Schlegel, G. E. Scuseria, 
 M. A. Robb, J. R. Cheeseman, G. Scalmani, V. Barone, 
 G. A. Petersson, H. Nakatsuji, X. Li, M. Caricato, A. V. Marenich, 
 J. Bloino, B. G. Janesko, R. Gomperts, B. Mennucci, H. P. Hratchian, 
 J. V. Ortiz, A. F. Izmaylov, J. L. Sonnenberg, D. Williams-Young, 
 F. Ding, F. Lipparini, F. Egidi, J. Goings, B. Peng, A. Petrone, 
 T. Henderson, D. Ranasinghe, V. G. Zakrzewski, J. Gao, N. Rega, 
 G. Zheng, W. Liang, M. Hada, M. Ehara, K. Toyota, R. Fukuda, 
 J. Hasegawa, M. Ishida, T. Nakajima, Y. Honda, O. Kitao, H. Nakai, 
 T. Vreven, K. Throssell, J. A. Montgomery, Jr., J. E. Peralta, 
 F. Ogliaro, M. J. Bearpark, J. J. Heyd, E. N. Brothers, K. N. Kudin, 
 V. N. Staroverov, T. A. Keith, R. Kobayashi, J. Normand, 
 K. Raghavachari, A. P. Rendell, J. C. Burant, S. S. Iyengar, 
 J. Tomasi, M. Cossi, J. M. Millam, M. Klene, C. Adamo, R. Cammi, 
 J. W. Ochterski, R. L. Martin, K. Morokuma, O. Farkas, 
 J. B. Foresman, and D. J. Fox, Gaussian, Inc., Wallingford CT, 2019.
 
 ******************************************
 Gaussian 16:  ES64L-G16RevC.01  3-Jul-2019
                 2-Apr-2025 
 ******************************************
 %nprocshared=20
 Will use up to   20 processors via shared memory.
 %mem=10000MW
 %chk=m-CN.chk
 ------------------------------------
 # opt freq m062x/aug-cc-pvtz pop=nbo
 ------------------------------------
 1/18=20,19=15,26=3,38=1/1,3;
 2/9=110,12=2,17=6,18=5,40=1/2;
 3/5=16,6=1,7=10,11=2,25=1,30=1,71=1,74=-55/1,2,3;
 4//1;
 5/5=2,38=5/2;
 6/7=2,8=2,9=2,10=2,28=1,40=1/1,7;
 7//1,2,3,16;
 1/18=20,19=15,26=3/3(2);
 2/9=110/2;
 99//99;
 2/9=110/2;
 3/5=16,6=1,7=10,11=2,25=1,30=1,71=1,74=-55/1,2,3;
 4/5=5,16=3,69=1/1;
 5/5=2,38=5/2;
 7//1,2,3,16;
 1/18=20,19=15,26=3/3(-5);
 2/9=110/2;
 6/7=2,8=2,9=2,10=2,19=2,28=1,40=1/1,7;
 99/9=1/99;
 ----
 m-CN
 ----
 Symbolic Z-matrix:
 Charge =  0 Multiplicity = 1
 C                    -1.7807   -0.5126    0.5086 
 C                    -1.5493   -1.8324    0.5894 
 C                    -0.3679   -2.3373    0.205 
 C                     0.5859   -1.5163   -0.2625 
 C                     0.3496   -0.1952   -0.3418 
 C                    -0.8334    0.3234    0.0416 
 C                    -1.052     1.6683   -0.0473 
 O                    -2.096     2.19      0.2831 
 O                    -0.1111    2.5257   -0.5149 
 C                     1.7467   -2.0095   -0.6405 
 N                     2.769    -2.4403   -0.9737 
 H                    -2.769    -0.1509    0.838 
 H                    -2.3333   -2.507     0.9737 
 H                    -0.1922   -3.4242    0.2773 
 H                     1.1536    0.4528   -0.7303 
 H                    -0.4773    3.4242   -0.4902 
 

 GradGradGradGradGradGradGradGradGradGradGradGradGradGradGradGradGradGrad
 Berny optimization.
 Initialization pass.
                           ----------------------------
                           !    Initial Parameters    !
                           ! (Angstroms and Degrees)  !
 --------------------------                            --------------------------
 ! Name  Definition              Value          Derivative Info.                !
 --------------------------------------------------------------------------------
 ! R1    R(1,2)                  1.3424         estimate D2E/DX2                !
 ! R2    R(1,6)                  1.347          estimate D2E/DX2                !
 ! R3    R(1,12)                 1.1028         estimate D2E/DX2                !
 ! R4    R(2,3)                  1.341          estimate D2E/DX2                !
 ! R5    R(2,13)                 1.1034         estimate D2E/DX2                !
 ! R6    R(3,4)                  1.3425         estimate D2E/DX2                !
 ! R7    R(3,14)                 1.1034         estimate D2E/DX2                !
 ! R8    R(4,5)                  1.3444         estimate D2E/DX2                !
 ! R9    R(4,10)                 1.3167         estimate D2E/DX2                !
 ! R10   R(5,6)                  1.3474         estimate D2E/DX2                !
 ! R11   R(5,15)                 1.1033         estimate D2E/DX2                !
 ! R12   R(6,7)                  1.3654         estimate D2E/DX2                !
 ! R13   R(7,8)                  1.213          estimate D2E/DX2                !
 ! R14   R(7,9)                  1.3561         estimate D2E/DX2                !
 ! R15   R(9,16)                 0.9706         estimate D2E/DX2                !
 ! R16   R(10,11)                1.1583         estimate D2E/DX2                !
 ! A1    A(2,1,6)              120.6538         estimate D2E/DX2                !
 ! A2    A(2,1,12)             117.3222         estimate D2E/DX2                !
 ! A3    A(6,1,12)             122.024          estimate D2E/DX2                !
 ! A4    A(1,2,3)              120.3165         estimate D2E/DX2                !
 ! A5    A(1,2,13)             119.9735         estimate D2E/DX2                !
 ! A6    A(3,2,13)             119.71           estimate D2E/DX2                !
 ! A7    A(2,3,4)              119.7            estimate D2E/DX2                !
 ! A8    A(2,3,14)             119.4967         estimate D2E/DX2                !
 ! A9    A(4,3,14)             120.8033         estimate D2E/DX2                !
 ! A10   A(3,4,5)              119.7757         estimate D2E/DX2                !
 ! A11   A(3,4,10)             119.8189         estimate D2E/DX2                !
 ! A12   A(5,4,10)             120.4055         estimate D2E/DX2                !
 ! A13   A(4,5,6)              121.0483         estimate D2E/DX2                !
 ! A14   A(4,5,15)             118.0237         estimate D2E/DX2                !
 ! A15   A(6,5,15)             120.928          estimate D2E/DX2                !
 ! A16   A(1,6,5)              118.5058         estimate D2E/DX2                !
 ! A17   A(1,6,7)              121.4188         estimate D2E/DX2                !
 ! A18   A(5,6,7)              120.0755         estimate D2E/DX2                !
 ! A19   A(6,7,8)              122.9353         estimate D2E/DX2                !
 ! A20   A(6,7,9)              122.283          estimate D2E/DX2                !
 ! A21   A(8,7,9)              114.7816         estimate D2E/DX2                !
 ! A22   A(7,9,16)             108.3451         estimate D2E/DX2                !
 ! A23   L(4,10,11,15,-1)      179.8348         estimate D2E/DX2                !
 ! A24   L(4,10,11,15,-2)      179.9915         estimate D2E/DX2                !
 ! D1    D(6,1,2,3)              0.0059         estimate D2E/DX2                !
 ! D2    D(6,1,2,13)           179.9992         estimate D2E/DX2                !
 ! D3    D(12,1,2,3)          -179.996          estimate D2E/DX2                !
 ! D4    D(12,1,2,13)           -0.0027         estimate D2E/DX2                !
 ! D5    D(2,1,6,5)              0.0007         estimate D2E/DX2                !
 ! D6    D(2,1,6,7)            179.9989         estimate D2E/DX2                !
 ! D7    D(12,1,6,5)          -179.9973         estimate D2E/DX2                !
 ! D8    D(12,1,6,7)             0.0009         estimate D2E/DX2                !
 ! D9    D(1,2,3,4)             -0.0035         estimate D2E/DX2                !
 ! D10   D(1,2,3,14)           179.994          estimate D2E/DX2                !
 ! D11   D(13,2,3,4)          -179.9968         estimate D2E/DX2                !
 ! D12   D(13,2,3,14)            0.0006         estimate D2E/DX2                !
 ! D13   D(2,3,4,5)             -0.0055         estimate D2E/DX2                !
 ! D14   D(2,3,4,10)           179.9968         estimate D2E/DX2                !
 ! D15   D(14,3,4,5)           179.9971         estimate D2E/DX2                !
 ! D16   D(14,3,4,10)           -0.0005         estimate D2E/DX2                !
 ! D17   D(3,4,5,6)              0.0122         estimate D2E/DX2                !
 ! D18   D(3,4,5,15)          -179.9966         estimate D2E/DX2                !
 ! D19   D(10,4,5,6)          -179.9901         estimate D2E/DX2                !
 ! D20   D(10,4,5,15)            0.0011         estimate D2E/DX2                !
 ! D21   D(4,5,6,1)             -0.0098         estimate D2E/DX2                !
 ! D22   D(4,5,6,7)            179.992          estimate D2E/DX2                !
 ! D23   D(15,5,6,1)           179.9993         estimate D2E/DX2                !
 ! D24   D(15,5,6,7)             0.0011         estimate D2E/DX2                !
 ! D25   D(1,6,7,8)              0.0143         estimate D2E/DX2                !
 ! D26   D(1,6,7,9)           -179.9863         estimate D2E/DX2                !
 ! D27   D(5,6,7,8)           -179.9876         estimate D2E/DX2                !
 ! D28   D(5,6,7,9)              0.0119         estimate D2E/DX2                !
 ! D29   D(6,7,9,16)          -179.98           estimate D2E/DX2                !
 ! D30   D(8,7,9,16)             0.0194         estimate D2E/DX2                !
 --------------------------------------------------------------------------------
 Trust Radius=3.00D-01 FncErr=1.00D-07 GrdErr=1.00D-06 EigMax=2.50D+02 EigMin=1.00D-04
 Number of steps in this run=     80 maximum allowed number of steps=    100.
 GradGradGradGradGradGradGradGradGradGradGradGradGradGradGradGradGradGrad

                          Input orientation:                          
 ---------------------------------------------------------------------
 Center     Atomic      Atomic             Coordinates (Angstroms)
 Number     Number       Type             X           Y           Z
 ---------------------------------------------------------------------
      1          6           0       -1.780700   -0.512600    0.508600
      2          6           0       -1.549300   -1.832400    0.589400
      3          6           0       -0.367900   -2.337300    0.205000
      4          6           0        0.585900   -1.516300   -0.262500
      5          6           0        0.349600   -0.195200   -0.341800
      6          6           0       -0.833400    0.323400    0.041600
      7          6           0       -1.052000    1.668300   -0.047300
      8          8           0       -2.096000    2.190000    0.283100
      9          8           0       -0.111100    2.525700   -0.514900
     10          6           0        1.746700   -2.009500   -0.640500
     11          7           0        2.769000   -2.440300   -0.973700
     12          1           0       -2.769000   -0.150900    0.838000
     13          1           0       -2.333300   -2.507000    0.973700
     14          1           0       -0.192200   -3.424200    0.277300
     15          1           0        1.153600    0.452800   -0.730300
     16          1           0       -0.477300    3.424200   -0.490200
 ---------------------------------------------------------------------
                    Distance matrix (angstroms):
                    1          2          3          4          5
     1  C    0.000000
     2  C    1.342366   0.000000
     3  C    2.327597   1.341042   0.000000
     4  C    2.683804   2.320503   1.342509   0.000000
     5  C    2.315621   2.674580   2.324304   1.344407   0.000000
     6  C    1.346983   2.336680   2.706051   2.343371   1.347379
     7  C    2.365661   3.592714   4.071422   3.587576   2.350286
     8  O    2.730258   4.070922   4.846532   4.607269   3.472843
     9  O    3.614745   4.720268   4.922700   4.109413   2.765051
    10  C    4.000461   3.522447   2.300838   1.316657   2.309284
    11  N    5.158780   4.632552   3.352623   2.474976   3.360546
    12  H    1.102755   2.092107   3.308522   3.785601   3.334600
    13  H    2.121159   1.103371   2.117190   3.321356   3.777951
    14  H    3.324793   2.114936   1.103381   2.130001   3.332157
    15  H    3.328211   3.777488   3.312764   2.102017   1.103292
    16  H    4.265542   5.472345   5.804322   5.058733   3.715621
                    6          7          8          9         10
     6  C    0.000000
     7  C    1.365447   0.000000
     8  O    2.266424   1.212960   0.000000
     9  O    2.383597   1.356126   2.165485   0.000000
    10  C    3.544658   4.659487   5.766730   4.902574   0.000000
    11  N    4.652543   5.686726   6.832821   5.759048   1.158321
    12  H    2.146104   2.653551   2.498130   4.007363   5.102147
    13  H    3.336117   4.485231   4.753425   5.699313   4.415829
    14  H    3.809357   5.174764   5.928215   6.002955   2.569643
    15  H    2.135590   2.609330   3.821615   2.437781   2.534315
    16  H    3.166162   1.899901   2.177483   0.970574   5.873148
                   11         12         13         14         15
    11  N    0.000000
    12  H    6.260436   0.000000
    13  H    5.461710   2.399887   0.000000
    14  H    3.361810   4.203424   2.431160   0.000000
    15  H    3.322467   4.267412   4.880830   4.225821   0.000000
    16  H    6.720461   4.449421   6.384894   6.897168   3.398044
                   16
    16  H    0.000000
 Stoichiometry    C8H5NO2
 Framework group  C1[X(C8H5NO2)]
 Deg. of freedom    42
 Full point group                 C1      NOp   1
 Largest Abelian subgroup         C1      NOp   1
 Largest concise Abelian subgroup C1      NOp   1
                         Standard orientation:                         
 ---------------------------------------------------------------------
 Center     Atomic      Atomic             Coordinates (Angstroms)
 Number     Number       Type             X           Y           Z
 ---------------------------------------------------------------------
      1          6           0       -0.650393    1.516118    0.000016
      2          6           0        0.576590    2.060599    0.000098
      3          6           0        1.664891    1.277021    0.000080
      4          6           0        1.523303   -0.058002    0.000050
      5          6           0        0.292484   -0.598849    0.000151
      6          6           0       -0.808113    0.178401    0.000035
      7          6           0       -2.048687   -0.392055   -0.000024
      8          8           0       -3.073161    0.257347   -0.000349
      9          8           0       -2.227774   -1.736304    0.000268
     10          6           0        2.590216   -0.829548   -0.000030
     11          7           0        3.526865   -1.511014   -0.000244
     12          1           0       -1.510435    2.206332   -0.000032
     13          1           0        0.692766    3.157837    0.000068
     14          1           0        2.666924    1.738950    0.000046
     15          1           0        0.209722   -1.699032    0.000182
     16          1           0       -3.181295   -1.917449   -0.000159
 ---------------------------------------------------------------------
 Rotational constants (GHZ):           2.3127369           0.7959660           0.5921634
 Standard basis: Aug-CC-pVTZ (5D, 7F)
 There are   730 symmetry adapted cartesian basis functions of A   symmetry.
 There are   621 symmetry adapted basis functions of A   symmetry.
   621 basis functions,   927 primitive gaussians,   730 cartesian basis functions
    38 alpha electrons       38 beta electrons
       nuclear repulsion energy       542.3923171305 Hartrees.
 NAtoms=   16 NActive=   16 NUniq=   16 SFac= 1.00D+00 NAtFMM=   60 NAOKFM=F Big=F
 Integral buffers will be    131072 words long.
 Raffenetti 2 integral format.
 Two-electron integral symmetry is turned on.
 One-electron integrals computed using PRISM.
 NBasis=   621 RedAO= T EigKep=  1.58D-06  NBF=   621
 NBsUse=   618 1.00D-06 EigRej=  9.61D-07 NBFU=   618
 ExpMin= 2.53D-02 ExpMax= 1.53D+04 ExpMxC= 5.22D+02 IAcc=3 IRadAn=         5 AccDes= 0.00D+00
 Harris functional with IExCor= 1009 and IRadAn=       5 diagonalized for initial guess.
 HarFok:  IExCor= 1009 AccDes= 0.00D+00 IRadAn=         5 IDoV= 1 UseB2=F ITyADJ=14
 ICtDFT=  3500011 ScaDFX=  1.000000  1.000000  1.000000  1.000000
 FoFCou: FMM=F IPFlag=           0 FMFlag=      100000 FMFlg1=           0
         NFxFlg=           0 DoJE=T BraDBF=F KetDBF=T FulRan=T
         wScrn=  0.000000 ICntrl=       500 IOpCl=  0 I1Cent=   200000004 NGrid=           0
         NMat0=    1 NMatS0=      1 NMatT0=    0 NMatD0=    1 NMtDS0=    0 NMtDT0=    0
 Petite list used in FoFCou.
 Requested convergence on RMS density matrix=1.00D-08 within 128 cycles.
 Requested convergence on MAX density matrix=1.00D-06.
 Requested convergence on             energy=1.00D-06.
 No special actions if energy rises.
 SCF Done:  E(RM062X) =  -513.021671762     A.U. after   14 cycles
            NFock= 14  Conv=0.69D-08     -V/T= 2.0027

 **********************************************************************

            Population analysis using the SCF Density.

 **********************************************************************

 Orbital symmetries:
       Occupied  (A) (A) (A) (A) (A) (A) (A) (A) (A) (A) (A) (A)
                 (A) (A) (A) (A) (A) (A) (A) (A) (A) (A) (A) (A)
                 (A) (A) (A) (A) (A) (A) (A) (A) (A) (A) (A) (A)
                 (A) (A)
       Virtual   (A) (A) (A) (A) (A) (A) (A) (A) (A) (A) (A) (A)
                 (A) (A) (A) (A) (A) (A) (A) (A) (A) (A) (A) (A)
                 (A) (A) (A) (A) (A) (A) (A) (A) (A) (A) (A) (A)
                 (A) (A) (A) (A) (A) (A) (A) (A) (A) (A) (A) (A)
                 (A) (A) (A) (A) (A) (A) (A) (A) (A) (A) (A) (A)
                 (A) (A) (A) (A) (A) (A) (A) (A) (A) (A) (A) (A)
                 (A) (A) (A) (A) (A) (A) (A) (A) (A) (A) (A) (A)
                 (A) (A) (A) (A) (A) (A) (A) (A) (A) (A) (A) (A)
                 (A) (A) (A) (A) (A) (A) (A) (A) (A) (A) (A) (A)
                 (A) (A) (A) (A) (A) (A) (A) (A) (A) (A) (A) (A)
                 (A) (A) (A) (A) (A) (A) (A) (A) (A) (A) (A) (A)
                 (A) (A) (A) (A) (A) (A) (A) (A) (A) (A) (A) (A)
                 (A) (A) (A) (A) (A) (A) (A) (A) (A) (A) (A) (A)
                 (A) (A) (A) (A) (A) (A) (A) (A) (A) (A) (A) (A)
                 (A) (A) (A) (A) (A) (A) (A) (A) (A) (A) (A) (A)
                 (A) (A) (A) (A) (A) (A) (A) (A) (A) (A) (A) (A)
                 (A) (A) (A) (A) (A) (A) (A) (A) (A) (A) (A) (A)
                 (A) (A) (A) (A) (A) (A) (A) (A) (A) (A) (A) (A)
                 (A) (A) (A) (A) (A) (A) (A) (A) (A) (A) (A) (A)
                 (A) (A) (A) (A) (A) (A) (A) (A) (A) (A) (A) (A)
                 (A) (A) (A) (A) (A) (A) (A) (A) (A) (A) (A) (A)
                 (A) (A) (A) (A) (A) (A) (A) (A) (A) (A) (A) (A)
                 (A) (A) (A) (A) (A) (A) (A) (A) (A) (A) (A) (A)
                 (A) (A) (A) (A) (A) (A) (A) (A) (A) (A) (A) (A)
                 (A) (A) (A) (A) (A) (A) (A) (A) (A) (A) (A) (A)
                 (A) (A) (A) (A) (A) (A) (A) (A) (A) (A) (A) (A)
                 (A) (A) (A) (A) (A) (A) (A) (A) (A) (A) (A) (A)
                 (A) (A) (A) (A) (A) (A) (A) (A) (A) (A) (A) (A)
                 (A) (A) (A) (A) (A) (A) (A) (A) (A) (A) (A) (A)
                 (A) (A) (A) (A) (A) (A) (A) (A) (A) (A) (A) (A)
                 (A) (A) (A) (A) (A) (A) (A) (A) (A) (A) (A) (A)
                 (A) (A) (A) (A) (A) (A) (A) (A) (A) (A) (A) (A)
                 (A) (A) (A) (A) (A) (A) (A) (A) (A) (A) (A) (A)
                 (A) (A) (A) (A) (A) (A) (A) (A) (A) (A) (A) (A)
                 (A) (A) (A) (A) (A) (A) (A) (A) (A) (A) (A) (A)
                 (A) (A) (A) (A) (A) (A) (A) (A) (A) (A) (A) (A)
                 (A) (A) (A) (A) (A) (A) (A) (A) (A) (A) (A) (A)
                 (A) (A) (A) (A) (A) (A) (A) (A) (A) (A) (A) (A)
                 (A) (A) (A) (A) (A) (A) (A) (A) (A) (A) (A) (A)
                 (A) (A) (A) (A) (A) (A) (A) (A) (A) (A) (A) (A)
                 (A) (A) (A) (A) (A) (A) (A) (A) (A) (A) (A) (A)
                 (A) (A) (A) (A) (A) (A) (A) (A) (A) (A) (A) (A)
                 (A) (A) (A) (A) (A) (A) (A) (A) (A) (A) (A) (A)
                 (A) (A) (A) (A) (A) (A) (A) (A) (A) (A) (A) (A)
                 (A) (A) (A) (A) (A) (A) (A) (A) (A) (A) (A) (A)
                 (A) (A) (A) (A) (A) (A) (A) (A) (A) (A) (A) (A)
                 (A) (A) (A) (A) (A) (A) (A) (A) (A) (A) (A) (A)
                 (A) (A) (A) (A) (A) (A) (A) (A) (A) (A) (A) (A)
                 (A) (A) (A) (A)
 The electronic state is 1-A.
 Alpha  occ. eigenvalues --  -19.68176 -19.62373 -14.76490 -10.68897 -10.58860
 Alpha  occ. eigenvalues --  -10.58713 -10.58619 -10.58206 -10.58149 -10.57857
 Alpha  occ. eigenvalues --  -10.57347  -1.25456  -1.14547  -1.05953  -1.02263
 Alpha  occ. eigenvalues --   -0.94258  -0.91869  -0.80229  -0.77960  -0.72936
 Alpha  occ. eigenvalues --   -0.66836  -0.61611  -0.59905  -0.58467  -0.57655
 Alpha  occ. eigenvalues --   -0.56726  -0.53594  -0.51938  -0.50142  -0.46641
 Alpha  occ. eigenvalues --   -0.46180  -0.44649  -0.44643  -0.41216  -0.41030
 Alpha  occ. eigenvalues --   -0.37268  -0.36394  -0.34443
 Alpha virt. eigenvalues --   -0.06014  -0.03373  -0.01398  -0.00425   0.00734
 Alpha virt. eigenvalues --    0.01544   0.02088   0.02569   0.03439   0.04234
 Alpha virt. eigenvalues --    0.04873   0.05168   0.05498   0.05646   0.06058
 Alpha virt. eigenvalues --    0.06877   0.07125   0.07334   0.07912   0.08173
 Alpha virt. eigenvalues --    0.08773   0.09205   0.09325   0.09437   0.09805
 Alpha virt. eigenvalues --    0.10378   0.10715   0.11825   0.12018   0.12217
 Alpha virt. eigenvalues --    0.13096   0.13557   0.14273   0.15202   0.15329
 Alpha virt. eigenvalues --    0.15526   0.16026   0.17379   0.17736   0.18118
 Alpha virt. eigenvalues --    0.18134   0.18510   0.18985   0.19475   0.20116
 Alpha virt. eigenvalues --    0.20284   0.20723   0.21379   0.21558   0.21967
 Alpha virt. eigenvalues --    0.22437   0.22497   0.23275   0.23388   0.23893
 Alpha virt. eigenvalues --    0.25151   0.25463   0.26351   0.26801   0.27020
 Alpha virt. eigenvalues --    0.27901   0.28034   0.28691   0.29716   0.30035
 Alpha virt. eigenvalues --    0.31031   0.31211   0.31897   0.32273   0.32896
 Alpha virt. eigenvalues --    0.33032   0.33261   0.34386   0.34398   0.34571
 Alpha virt. eigenvalues --    0.34614   0.35754   0.36162   0.36386   0.37116
 Alpha virt. eigenvalues --    0.37495   0.38551   0.38917   0.38969   0.39779
 Alpha virt. eigenvalues --    0.39860   0.40017   0.40522   0.41048   0.41155
 Alpha virt. eigenvalues --    0.42271   0.42591   0.42974   0.43079   0.43842
 Alpha virt. eigenvalues --    0.44739   0.45275   0.46147   0.48024   0.48811
 Alpha virt. eigenvalues --    0.48814   0.49681   0.49722   0.51457   0.51462
 Alpha virt. eigenvalues --    0.52457   0.52622   0.54070   0.55125   0.55329
 Alpha virt. eigenvalues --    0.55593   0.56407   0.56736   0.56792   0.57667
 Alpha virt. eigenvalues --    0.58703   0.59251   0.59508   0.60849   0.61099
 Alpha virt. eigenvalues --    0.61724   0.62352   0.63363   0.64997   0.65455
 Alpha virt. eigenvalues --    0.66134   0.66528   0.67400   0.67725   0.68653
 Alpha virt. eigenvalues --    0.69619   0.69918   0.70010   0.70352   0.71415
 Alpha virt. eigenvalues --    0.72887   0.72996   0.73290   0.73421   0.73960
 Alpha virt. eigenvalues --    0.74776   0.75094   0.75158   0.76242   0.77060
 Alpha virt. eigenvalues --    0.77748   0.77750   0.78019   0.78971   0.79857
 Alpha virt. eigenvalues --    0.80795   0.81015   0.81480   0.82833   0.83459
 Alpha virt. eigenvalues --    0.83619   0.84046   0.84558   0.85181   0.85579
 Alpha virt. eigenvalues --    0.87178   0.87573   0.88293   0.88875   0.89133
 Alpha virt. eigenvalues --    0.89223   0.89348   0.89499   0.89927   0.90703
 Alpha virt. eigenvalues --    0.92413   0.92570   0.93351   0.93892   0.93982
 Alpha virt. eigenvalues --    0.94447   0.95547   0.96281   0.96859   0.97928
 Alpha virt. eigenvalues --    0.98171   0.98239   0.99363   1.00047   1.00711
 Alpha virt. eigenvalues --    1.01647   1.02399   1.03266   1.04472   1.05222
 Alpha virt. eigenvalues --    1.05568   1.06046   1.06314   1.06991   1.07188
 Alpha virt. eigenvalues --    1.08425   1.08791   1.08934   1.09996   1.10899
 Alpha virt. eigenvalues --    1.11487   1.12101   1.12288   1.13434   1.14257
 Alpha virt. eigenvalues --    1.14287   1.16915   1.18927   1.19244   1.19993
 Alpha virt. eigenvalues --    1.19995   1.21060   1.21578   1.23143   1.23188
 Alpha virt. eigenvalues --    1.25127   1.26444   1.27211   1.27476   1.28965
 Alpha virt. eigenvalues --    1.31218   1.31650   1.32052   1.32285   1.34023
 Alpha virt. eigenvalues --    1.34609   1.34647   1.34914   1.36593   1.38155
 Alpha virt. eigenvalues --    1.39311   1.40560   1.41838   1.42319   1.42815
 Alpha virt. eigenvalues --    1.43433   1.43582   1.46482   1.46930   1.47842
 Alpha virt. eigenvalues --    1.48520   1.49236   1.49887   1.52206   1.52662
 Alpha virt. eigenvalues --    1.53260   1.53575   1.53675   1.54943   1.55761
 Alpha virt. eigenvalues --    1.59253   1.60262   1.61478   1.61605   1.62750
 Alpha virt. eigenvalues --    1.63184   1.64223   1.65569   1.65957   1.66360
 Alpha virt. eigenvalues --    1.66761   1.67031   1.68173   1.69118   1.69875
 Alpha virt. eigenvalues --    1.71090   1.71613   1.72500   1.72955   1.74968
 Alpha virt. eigenvalues --    1.75915   1.77285   1.79143   1.80095   1.80590
 Alpha virt. eigenvalues --    1.81884   1.83247   1.84019   1.85478   1.86861
 Alpha virt. eigenvalues --    1.86963   1.87155   1.89588   1.89745   1.90221
 Alpha virt. eigenvalues --    1.91739   1.91753   1.92473   1.94180   1.94478
 Alpha virt. eigenvalues --    1.94692   1.98023   1.99030   1.99349   2.00043
 Alpha virt. eigenvalues --    2.02233   2.02394   2.03117   2.03713   2.07263
 Alpha virt. eigenvalues --    2.07702   2.09104   2.10705   2.11625   2.13990
 Alpha virt. eigenvalues --    2.15210   2.16131   2.17245   2.18251   2.18857
 Alpha virt. eigenvalues --    2.19732   2.20786   2.20871   2.21841   2.23630
 Alpha virt. eigenvalues --    2.25527   2.25675   2.27772   2.28603   2.29706
 Alpha virt. eigenvalues --    2.30836   2.33562   2.35790   2.36658   2.38672
 Alpha virt. eigenvalues --    2.39441   2.40367   2.41067   2.42902   2.43486
 Alpha virt. eigenvalues --    2.45975   2.47874   2.49592   2.49738   2.53221
 Alpha virt. eigenvalues --    2.55293   2.56043   2.56571   2.59979   2.62308
 Alpha virt. eigenvalues --    2.63850   2.66155   2.67831   2.69214   2.69492
 Alpha virt. eigenvalues --    2.74023   2.74293   2.78228   2.79344   2.80975
 Alpha virt. eigenvalues --    2.83961   2.84154   2.88330   2.88345   2.89788
 Alpha virt. eigenvalues --    2.93022   2.95708   2.96254   2.96687   2.97063
 Alpha virt. eigenvalues --    2.98740   2.98909   2.99761   3.02042   3.04147
 Alpha virt. eigenvalues --    3.06900   3.09897   3.10352   3.11143   3.13226
 Alpha virt. eigenvalues --    3.13317   3.14205   3.15867   3.16705   3.18145
 Alpha virt. eigenvalues --    3.19545   3.21266   3.22441   3.23170   3.23333
 Alpha virt. eigenvalues --    3.24228   3.26649   3.26750   3.27100   3.29218
 Alpha virt. eigenvalues --    3.30570   3.31937   3.32286   3.34096   3.35871
 Alpha virt. eigenvalues --    3.37410   3.37437   3.38744   3.40325   3.41754
 Alpha virt. eigenvalues --    3.42524   3.44204   3.44762   3.45665   3.45940
 Alpha virt. eigenvalues --    3.46472   3.49999   3.50720   3.52560   3.55173
 Alpha virt. eigenvalues --    3.55923   3.56133   3.57133   3.59251   3.59715
 Alpha virt. eigenvalues --    3.61759   3.63053   3.64119   3.65331   3.66004
 Alpha virt. eigenvalues --    3.66432   3.67856   3.68973   3.70317   3.70692
 Alpha virt. eigenvalues --    3.72766   3.74822   3.74995   3.76330   3.77283
 Alpha virt. eigenvalues --    3.79473   3.82147   3.83305   3.84463   3.84932
 Alpha virt. eigenvalues --    3.86559   3.87657   3.87830   3.88376   3.89084
 Alpha virt. eigenvalues --    3.91473   3.94233   3.94319   3.96600   3.96840
 Alpha virt. eigenvalues --    3.97694   3.99766   4.00265   4.00420   4.02046
 Alpha virt. eigenvalues --    4.02960   4.03384   4.06570   4.07435   4.09026
 Alpha virt. eigenvalues --    4.10229   4.11066   4.12999   4.13323   4.16805
 Alpha virt. eigenvalues --    4.18692   4.19290   4.19781   4.21697   4.23488
 Alpha virt. eigenvalues --    4.24952   4.28331   4.31288   4.32751   4.33101
 Alpha virt. eigenvalues --    4.35148   4.38480   4.38939   4.41979   4.42913
 Alpha virt. eigenvalues --    4.43288   4.45399   4.47851   4.49649   4.54362
 Alpha virt. eigenvalues --    4.56272   4.58212   4.59517   4.60147   4.60622
 Alpha virt. eigenvalues --    4.63645   4.64744   4.65922   4.66328   4.68135
 Alpha virt. eigenvalues --    4.69503   4.70362   4.71920   4.72336   4.75048
 Alpha virt. eigenvalues --    4.75406   4.76731   4.79168   4.81622   4.82354
 Alpha virt. eigenvalues --    4.86525   4.89563   4.90857   4.93433   4.95009
 Alpha virt. eigenvalues --    4.95735   4.97437   4.98114   4.99345   5.01829
 Alpha virt. eigenvalues --    5.04938   5.05452   5.05873   5.09797   5.10375
 Alpha virt. eigenvalues --    5.16438   5.19802   5.23457   5.23790   5.28978
 Alpha virt. eigenvalues --    5.31640   5.35047   5.35219   5.38598   5.41036
 Alpha virt. eigenvalues --    5.44788   5.44982   5.47735   5.53807   5.55424
 Alpha virt. eigenvalues --    5.71951   5.72575   5.83175   5.85663   5.91481
 Alpha virt. eigenvalues --    5.91823   5.95752   6.02822   6.04337   6.15095
 Alpha virt. eigenvalues --    6.22576   6.25887   6.28411   6.30986   6.33478
 Alpha virt. eigenvalues --    6.34532   6.36073   6.38890   6.42109   6.42302
 Alpha virt. eigenvalues --    6.53981   6.54589   6.57611   6.61514   6.70297
 Alpha virt. eigenvalues --    6.74214   6.77980   6.80135   6.81144   6.81530
 Alpha virt. eigenvalues --    6.86203   6.88218   6.90782   7.01917   7.07387
 Alpha virt. eigenvalues --    7.09615   7.12865   7.17623   7.32239   7.39503
 Alpha virt. eigenvalues --    7.51385   7.69648   7.88789   8.03855  15.41449
 Alpha virt. eigenvalues --   15.71653  16.92288  17.64525  17.72152  18.68651
 Alpha virt. eigenvalues --   19.61046  19.87462  20.67905  20.82432  21.42518
          Condensed to atoms (all electrons):
               1          2          3          4          5          6
     1  C    8.380222  -0.431593   0.358961  -0.659120   0.389579  -1.052832
     2  C   -0.431593   7.281459  -0.538568   0.417529  -0.527535   0.108328
     3  C    0.358961  -0.538568   8.358309  -1.030395   0.418297  -0.510577
     4  C   -0.659120   0.417529  -1.030395   7.219156  -1.137507   0.363525
     5  C    0.389579  -0.527535   0.418297  -1.137507   9.697236  -1.076039
     6  C   -1.052832   0.108328  -0.510577   0.363525  -1.076039   7.474314
     7  C   -0.326359   0.032559   0.059577   0.119764  -0.687978  -0.500160
     8  O    0.073601  -0.058900   0.016667  -0.050508   0.147303  -0.272477
     9  O   -0.003718  -0.017951   0.019119  -0.022724  -0.110212   0.137293
    10  C   -0.016268   0.070699  -0.642196  -0.359049  -0.858336   0.056551
    11  N    0.009382  -0.001652   0.039487   0.039850   0.147801   0.007521
    12  H    0.146413  -0.303503   0.071079  -0.010716  -0.079952  -0.167097
    13  H   -0.278865   0.560310  -0.145978   0.007012   0.005872   0.011962
    14  H    0.111178  -0.367226   0.410058  -0.321011   0.069734  -0.039558
    15  H    0.123435  -0.095834   0.079117  -0.496362   0.715408  -0.599359
    16  H   -0.013240   0.005895  -0.003804   0.007568  -0.013576  -0.000349
               7          8          9         10         11         12
     1  C   -0.326359   0.073601  -0.003718  -0.016268   0.009382   0.146413
     2  C    0.032559  -0.058900  -0.017951   0.070699  -0.001652  -0.303503
     3  C    0.059577   0.016667   0.019119  -0.642196   0.039487   0.071079
     4  C    0.119764  -0.050508  -0.022724  -0.359049   0.039850  -0.010716
     5  C   -0.687978   0.147303  -0.110212  -0.858336   0.147801  -0.079952
     6  C   -0.500160  -0.272477   0.137293   0.056551   0.007521  -0.167097
     7  C    7.159067  -0.048693  -0.049231  -0.088009   0.007324   0.138612
     8  O   -0.048693   9.353025  -0.117570   0.008700  -0.000546  -0.046257
     9  O   -0.049231  -0.117570   8.643058   0.021506  -0.000628   0.005019
    10  C   -0.088009   0.008700   0.021506   7.837913  -0.550452  -0.006512
    11  N    0.007324  -0.000546  -0.000628  -0.550452   8.367930   0.001498
    12  H    0.138612  -0.046257   0.005019  -0.006512   0.001498   1.036175
    13  H    0.009839  -0.006153  -0.001011  -0.001757  -0.001666  -0.064723
    14  H   -0.015004   0.002073   0.000914   0.159971  -0.023086  -0.012290
    15  H    0.010866   0.018741  -0.068091  -0.053269  -0.017608  -0.026300
    16  H    0.104619  -0.105102   0.142283  -0.004508   0.000143   0.000336
              13         14         15         16
     1  C   -0.278865   0.111178   0.123435  -0.013240
     2  C    0.560310  -0.367226  -0.095834   0.005895
     3  C   -0.145978   0.410058   0.079117  -0.003804
     4  C    0.007012  -0.321011  -0.496362   0.007568
     5  C    0.005872   0.069734   0.715408  -0.013576
     6  C    0.011962  -0.039558  -0.599359  -0.000349
     7  C    0.009839  -0.015004   0.010866   0.104619
     8  O   -0.006153   0.002073   0.018741  -0.105102
     9  O   -0.001011   0.000914  -0.068091   0.142283
    10  C   -0.001757   0.159971  -0.053269  -0.004508
    11  N   -0.001666  -0.023086  -0.017608   0.000143
    12  H   -0.064723  -0.012290  -0.026300   0.000336
    13  H    0.723063   0.018971   0.001134   0.000483
    14  H    0.018971   0.742880   0.014030  -0.000376
    15  H    0.001134   0.014030   1.368427  -0.004368
    16  H    0.000483  -0.000376  -0.004368   0.591360
 Mulliken charges:
               1
     1  C   -0.810776
     2  C   -0.134017
     3  C   -0.959154
     4  C    1.912990
     5  C   -1.100094
     6  C    2.058954
     7  C    0.073207
     8  O   -0.913905
     9  O   -0.578058
    10  C    0.425015
    11  N   -1.025299
    12  H    0.318218
    13  H    0.161508
    14  H    0.248744
    15  H    0.030033
    16  H    0.292635
 Sum of Mulliken charges =   0.00000
 Mulliken charges with hydrogens summed into heavy atoms:
               1
     1  C   -0.492558
     2  C    0.027491
     3  C   -0.710411
     4  C    1.912990
     5  C   -1.070061
     6  C    2.058954
     7  C    0.073207
     8  O   -0.913905
     9  O   -0.285423
    10  C    0.425015
    11  N   -1.025299
 Electronic spatial extent (au):  <R**2>=           1750.5293
 Charge=              0.0000 electrons
 Dipole moment (field-independent basis, Debye):
    X=             -1.4279    Y=              2.3375    Z=              0.0003  Tot=              2.7391
 Quadrupole moment (field-independent basis, Debye-Ang):
   XX=            -78.1238   YY=            -57.5389   ZZ=            -62.9483
   XY=             15.2985   XZ=              0.0015   YZ=              0.0012
 Traceless Quadrupole moment (field-independent basis, Debye-Ang):
   XX=            -11.9201   YY=              8.6648   ZZ=              3.2554
   XY=             15.2985   XZ=              0.0015   YZ=              0.0012
 Octapole moment (field-independent basis, Debye-Ang**2):
  XXX=            -70.8432  YYY=             15.8425  ZZZ=             -0.0011  XYY=            -26.5155
  XXY=             10.7728  XXZ=              0.0069  XZZ=             -8.9911  YZZ=             -3.8511
  YYZ=             -0.0021  XYZ=             -0.0083
 Hexadecapole moment (field-independent basis, Debye-Ang**3):
 XXXX=          -1874.5122 YYYY=           -585.3692 ZZZZ=            -64.3110 XXXY=            265.2427
 XXXZ=              0.0166 YYYX=             68.4846 YYYZ=              0.0019 ZZZX=              0.0023
 ZZZY=             -0.0015 XXYY=           -371.1438 XXZZ=           -279.8959 YYZZ=           -123.8834
 XXYZ=              0.0063 YYXZ=              0.0144 ZZXY=              5.5240
 N-N= 5.423923171305D+02 E-N=-2.282044988133D+03  KE= 5.116542587271D+02
 ******************************Gaussian NBO Version 3.1******************************
             N A T U R A L   A T O M I C   O R B I T A L   A N D
          N A T U R A L   B O N D   O R B I T A L   A N A L Y S I S
 ******************************Gaussian NBO Version 3.1******************************
       /RESON  / : Allow strongly delocalized NBO set

 Analyzing the SCF density

 Job title: m-CN                                                            

 Storage needed:   1159527 in NPA,   1544729 in NBO (********** available)
 GSVD:  LWork=       51087 too small for GESVD, short by      614358 words or      614358 for optimal perf.


 NATURAL POPULATIONS:  Natural atomic orbital occupancies 
                                                          
   NAO  Atom  No  lang   Type(AO)    Occupancy      Energy
 ----------------------------------------------------------
     1    C    1  S      Cor( 1S)     1.99909     -10.41220
     2    C    1  S      Val( 2S)     0.94594      -0.20836
     3    C    1  S      Ryd( 4S)     0.00138       1.96892
     4    C    1  S      Ryd( 5S)     0.00012       2.73132
     5    C    1  S      Ryd( 3S)     0.00002       1.93149
     6    C    1  px     Val( 2p)     1.14630      -0.10529
     7    C    1  px     Ryd( 4p)     0.00468       1.92950
     8    C    1  px     Ryd( 3p)     0.00009       1.29160
     9    C    1  px     Ryd( 5p)     0.00008       2.38576
    10    C    1  py     Val( 2p)     1.08033      -0.08154
    11    C    1  py     Ryd( 4p)     0.00415       1.80822
    12    C    1  py     Ryd( 3p)     0.00005       1.24301
    13    C    1  py     Ryd( 5p)     0.00002       2.17980
    14    C    1  pz     Val( 2p)     0.90655      -0.14213
    15    C    1  pz     Ryd( 4p)     0.00065       1.00858
    16    C    1  pz     Ryd( 3p)     0.00003       0.79716
    17    C    1  pz     Ryd( 5p)     0.00006       1.42755
    18    C    1  dxy    Ryd( 3d)     0.00176       2.43776
    19    C    1  dxy    Ryd( 5d)     0.00017       3.88444
    20    C    1  dxy    Ryd( 4d)     0.00009       3.47918
    21    C    1  dxz    Ryd( 3d)     0.00042       1.48753
    22    C    1  dxz    Ryd( 5d)     0.00003       3.18056
    23    C    1  dxz    Ryd( 4d)     0.00003       1.60621
    24    C    1  dyz    Ryd( 3d)     0.00023       1.37885
    25    C    1  dyz    Ryd( 5d)     0.00007       3.14617
    26    C    1  dyz    Ryd( 4d)     0.00002       1.57322
    27    C    1  dx2y2  Ryd( 4d)     0.00207       3.80202
    28    C    1  dx2y2  Ryd( 5d)     0.00024       4.24315
    29    C    1  dx2y2  Ryd( 3d)     0.00006       2.03655
    30    C    1  dz2    Ryd( 3d)     0.00100       1.90026
    31    C    1  dz2    Ryd( 4d)     0.00008       4.01630
    32    C    1  dz2    Ryd( 5d)     0.00006       4.20783
    33    C    1  f(0)   Ryd( 4f)     0.00009       1.45919
    34    C    1  f(0)   Ryd( 5f)     0.00009       3.37558
    35    C    1  f(C1)  Ryd( 4f)     0.00043       1.94777
    36    C    1  f(C1)  Ryd( 5f)     0.00017       3.60841
    37    C    1  f(S1)  Ryd( 4f)     0.00042       1.81426
    38    C    1  f(S1)  Ryd( 5f)     0.00018       3.53371
    39    C    1  f(C2)  Ryd( 4f)     0.00020       1.44350
    40    C    1  f(C2)  Ryd( 5f)     0.00002       3.43371
    41    C    1  f(S2)  Ryd( 4f)     0.00018       1.58673
    42    C    1  f(S2)  Ryd( 5f)     0.00004       3.37683
    43    C    1  f(C3)  Ryd( 4f)     0.00099       2.02641
    44    C    1  f(C3)  Ryd( 5f)     0.00019       4.19430
    45    C    1  f(S3)  Ryd( 4f)     0.00049       2.68515
    46    C    1  f(S3)  Ryd( 5f)     0.00015       4.02994
 
    47    C    2  S      Cor( 1S)     1.99913     -10.40582
    48    C    2  S      Val( 2S)     0.94920      -0.22021
    49    C    2  S      Ryd( 4S)     0.00136       1.84757
    50    C    2  S      Ryd( 5S)     0.00006       2.91444
    51    C    2  S      Ryd( 3S)     0.00002       1.75381
    52    C    2  px     Val( 2p)     1.06436      -0.09385
    53    C    2  px     Ryd( 5p)     0.00375       1.70403
    54    C    2  px     Ryd( 3p)     0.00007       0.98397
    55    C    2  px     Ryd( 4p)     0.00002       1.40129
    56    C    2  py     Val( 2p)     1.18551      -0.11437
    57    C    2  py     Ryd( 4p)     0.00480       1.70527
    58    C    2  py     Ryd( 3p)     0.00003       1.41637
    59    C    2  py     Ryd( 5p)     0.00004       1.78770
    60    C    2  pz     Val( 2p)     0.99213      -0.15007
    61    C    2  pz     Ryd( 4p)     0.00057       1.01789
    62    C    2  pz     Ryd( 3p)     0.00004       0.95303
    63    C    2  pz     Ryd( 5p)     0.00003       1.21158
    64    C    2  dxy    Ryd( 4d)     0.00220       3.30191
    65    C    2  dxy    Ryd( 5d)     0.00023       3.47100
    66    C    2  dxy    Ryd( 3d)     0.00004       2.12481
    67    C    2  dxz    Ryd( 3d)     0.00033       1.51205
    68    C    2  dxz    Ryd( 5d)     0.00001       2.64053
    69    C    2  dxz    Ryd( 4d)     0.00002       1.82832
    70    C    2  dyz    Ryd( 3d)     0.00028       1.44425
    71    C    2  dyz    Ryd( 5d)     0.00005       2.71712
    72    C    2  dyz    Ryd( 4d)     0.00002       1.66812
    73    C    2  dx2y2  Ryd( 3d)     0.00189       2.36182
    74    C    2  dx2y2  Ryd( 5d)     0.00016       3.44318
    75    C    2  dx2y2  Ryd( 4d)     0.00007       2.83445
    76    C    2  dz2    Ryd( 3d)     0.00101       1.85740
    77    C    2  dz2    Ryd( 5d)     0.00007       3.91551
    78    C    2  dz2    Ryd( 4d)     0.00009       3.25714
    79    C    2  f(0)   Ryd( 5f)     0.00011       3.50906
    80    C    2  f(0)   Ryd( 4f)     0.00001       2.12529
    81    C    2  f(C1)  Ryd( 5f)     0.00028       3.79185
    82    C    2  f(C1)  Ryd( 4f)     0.00001       2.76335
    83    C    2  f(S1)  Ryd( 5f)     0.00015       3.70869
    84    C    2  f(S1)  Ryd( 4f)     0.00003       2.71479
    85    C    2  f(C2)  Ryd( 5f)     0.00001       3.69402
    86    C    2  f(C2)  Ryd( 4f)     0.00001       2.20886
    87    C    2  f(S2)  Ryd( 5f)     0.00001       3.60037
    88    C    2  f(S2)  Ryd( 4f)     0.00001       2.31722
    89    C    2  f(C3)  Ryd( 5f)     0.00009       4.40454
    90    C    2  f(C3)  Ryd( 4f)     0.00010       4.09028
    91    C    2  f(S3)  Ryd( 4f)     0.00013       4.27050
    92    C    2  f(S3)  Ryd( 5f)     0.00007       5.39000
 
    93    C    3  S      Cor( 1S)     1.99906     -10.41649
    94    C    3  S      Val( 2S)     0.94235      -0.20882
    95    C    3  S      Ryd( 4S)     0.00123       1.86550
    96    C    3  S      Ryd( 5S)     0.00016       2.55469
    97    C    3  S      Ryd( 3S)     0.00001       1.66894
    98    C    3  px     Val( 2p)     1.17123      -0.11608
    99    C    3  px     Ryd( 5p)     0.00430       1.82624
   100    C    3  px     Ryd( 3p)     0.00005       1.50843
   101    C    3  px     Ryd( 4p)     0.00006       1.67893
   102    C    3  py     Val( 2p)     1.04069      -0.08251
   103    C    3  py     Ryd( 5p)     0.00336       1.69586
   104    C    3  py     Ryd( 3p)     0.00011       1.22673
   105    C    3  py     Ryd( 4p)     0.00003       1.53823
   106    C    3  pz     Val( 2p)     0.92523      -0.15027
   107    C    3  pz     Ryd( 3p)     0.00071       1.02889
   108    C    3  pz     Ryd( 4p)     0.00005       1.03833
   109    C    3  pz     Ryd( 5p)     0.00002       1.12813
   110    C    3  dxy    Ryd( 3d)     0.00159       2.93009
   111    C    3  dxy    Ryd( 4d)     0.00025       3.22693
   112    C    3  dxy    Ryd( 5d)     0.00009       3.64907
   113    C    3  dxz    Ryd( 3d)     0.00032       1.54819
   114    C    3  dxz    Ryd( 5d)     0.00007       2.43304
   115    C    3  dxz    Ryd( 4d)     0.00001       2.18547
   116    C    3  dyz    Ryd( 3d)     0.00016       1.51072
   117    C    3  dyz    Ryd( 5d)     0.00013       2.54006
   118    C    3  dyz    Ryd( 4d)     0.00002       2.26244
   119    C    3  dx2y2  Ryd( 4d)     0.00183       3.20479
   120    C    3  dx2y2  Ryd( 3d)     0.00010       3.20110
   121    C    3  dx2y2  Ryd( 5d)     0.00002       3.45672
   122    C    3  dz2    Ryd( 3d)     0.00105       1.79985
   123    C    3  dz2    Ryd( 5d)     0.00008       4.05178
   124    C    3  dz2    Ryd( 4d)     0.00007       3.71027
   125    C    3  f(0)   Ryd( 5f)     0.00009       3.54286
   126    C    3  f(0)   Ryd( 4f)     0.00002       2.07430
   127    C    3  f(C1)  Ryd( 5f)     0.00016       3.73781
   128    C    3  f(C1)  Ryd( 4f)     0.00003       3.04474
   129    C    3  f(S1)  Ryd( 5f)     0.00019       3.76942
   130    C    3  f(S1)  Ryd( 4f)     0.00001       2.75144
   131    C    3  f(C2)  Ryd( 5f)     0.00001       3.65112
   132    C    3  f(C2)  Ryd( 4f)     0.00002       2.06450
   133    C    3  f(S2)  Ryd( 5f)     0.00001       3.67368
   134    C    3  f(S2)  Ryd( 4f)     0.00002       2.28269
   135    C    3  f(C3)  Ryd( 5f)     0.00006       4.56868
   136    C    3  f(C3)  Ryd( 4f)     0.00010       3.92132
   137    C    3  f(S3)  Ryd( 4f)     0.00012       4.44775
   138    C    3  f(S3)  Ryd( 5f)     0.00004       5.15965
 
   139    C    4  S      Cor( 1S)     1.99874     -10.39986
   140    C    4  S      Val( 2S)     0.86851      -0.11718
   141    C    4  S      Ryd( 3S)     0.00114       1.94142
   142    C    4  S      Ryd( 4S)     0.00009       2.77696
   143    C    4  S      Ryd( 5S)     0.00002       3.29116
   144    C    4  px     Val( 2p)     1.13564      -0.13128
   145    C    4  px     Ryd( 5p)     0.00460       2.34136
   146    C    4  px     Ryd( 4p)     0.00084       2.09700
   147    C    4  px     Ryd( 3p)     0.00004       1.05539
   148    C    4  py     Val( 2p)     1.14295      -0.13712
   149    C    4  py     Ryd( 5p)     0.00335       2.20053
   150    C    4  py     Ryd( 4p)     0.00056       1.97417
   151    C    4  py     Ryd( 3p)     0.00004       1.16068
   152    C    4  pz     Val( 2p)     1.07212      -0.16295
   153    C    4  pz     Ryd( 3p)     0.00182       0.79149
   154    C    4  pz     Ryd( 5p)     0.00020       1.13420
   155    C    4  pz     Ryd( 4p)     0.00001       0.86294
   156    C    4  dxy    Ryd( 3d)     0.00125       2.97096
   157    C    4  dxy    Ryd( 4d)     0.00008       3.77551
   158    C    4  dxy    Ryd( 5d)     0.00002       6.28063
   159    C    4  dxz    Ryd( 3d)     0.00012       1.90983
   160    C    4  dxz    Ryd( 4d)     0.00009       2.53328
   161    C    4  dxz    Ryd( 5d)     0.00001       2.75412
   162    C    4  dyz    Ryd( 3d)     0.00021       1.82353
   163    C    4  dyz    Ryd( 4d)     0.00007       2.40842
   164    C    4  dyz    Ryd( 5d)     0.00003       2.82828
   165    C    4  dx2y2  Ryd( 4d)     0.00106       3.27959
   166    C    4  dx2y2  Ryd( 3d)     0.00009       3.10147
   167    C    4  dx2y2  Ryd( 5d)     0.00005       6.07243
   168    C    4  dz2    Ryd( 3d)     0.00081       2.02108
   169    C    4  dz2    Ryd( 4d)     0.00013       4.12854
   170    C    4  dz2    Ryd( 5d)     0.00003       4.29924
   171    C    4  f(0)   Ryd( 4f)     0.00066       1.67174
   172    C    4  f(0)   Ryd( 5f)     0.00010       3.45822
   173    C    4  f(C1)  Ryd( 4f)     0.00091       1.97024
   174    C    4  f(C1)  Ryd( 5f)     0.00006       3.77094
   175    C    4  f(S1)  Ryd( 4f)     0.00090       1.97495
   176    C    4  f(S1)  Ryd( 5f)     0.00011       3.73814
   177    C    4  f(C2)  Ryd( 4f)     0.00018       1.41609
   178    C    4  f(C2)  Ryd( 5f)     0.00002       3.29943
   179    C    4  f(S2)  Ryd( 4f)     0.00060       1.55566
   180    C    4  f(S2)  Ryd( 5f)     0.00004       3.45891
   181    C    4  f(C3)  Ryd( 4f)     0.00178       2.48422
   182    C    4  f(C3)  Ryd( 5f)     0.00021       4.29758
   183    C    4  f(S3)  Ryd( 4f)     0.00090       2.39819
   184    C    4  f(S3)  Ryd( 5f)     0.00007       4.71817
 
   185    C    5  S      Cor( 1S)     1.99907     -10.41821
   186    C    5  S      Val( 2S)     0.93308      -0.19431
   187    C    5  S      Ryd( 3S)     0.00104       1.83455
   188    C    5  S      Ryd( 5S)     0.00018       2.43589
   189    C    5  S      Ryd( 4S)     0.00001       1.97433
   190    C    5  px     Val( 2p)     1.00953      -0.07389
   191    C    5  px     Ryd( 5p)     0.00259       1.97657
   192    C    5  px     Ryd( 3p)     0.00016       1.72818
   193    C    5  px     Ryd( 4p)     0.00002       1.85578
   194    C    5  py     Val( 2p)     1.18261      -0.11191
   195    C    5  py     Ryd( 4p)     0.00446       1.93055
   196    C    5  py     Ryd( 5p)     0.00009       1.93258
   197    C    5  py     Ryd( 3p)     0.00004       1.63599
   198    C    5  pz     Val( 2p)     0.91753      -0.14951
   199    C    5  pz     Ryd( 3p)     0.00095       1.01416
   200    C    5  pz     Ryd( 5p)     0.00007       1.33028
   201    C    5  pz     Ryd( 4p)     0.00005       1.06570
   202    C    5  dxy    Ryd( 4d)     0.00168       3.63843
   203    C    5  dxy    Ryd( 3d)     0.00026       3.38791
   204    C    5  dxy    Ryd( 5d)     0.00007       4.40852
   205    C    5  dxz    Ryd( 3d)     0.00033       1.36440
   206    C    5  dxz    Ryd( 5d)     0.00018       2.77947
   207    C    5  dxz    Ryd( 4d)     0.00001       2.72753
   208    C    5  dyz    Ryd( 3d)     0.00025       1.37159
   209    C    5  dyz    Ryd( 5d)     0.00014       2.70417
   210    C    5  dyz    Ryd( 4d)     0.00003       2.60664
   211    C    5  dx2y2  Ryd( 3d)     0.00184       2.59911
   212    C    5  dx2y2  Ryd( 4d)     0.00008       3.64496
   213    C    5  dx2y2  Ryd( 5d)     0.00005       5.58991
   214    C    5  dz2    Ryd( 3d)     0.00096       1.71139
   215    C    5  dz2    Ryd( 4d)     0.00013       3.84354
   216    C    5  dz2    Ryd( 5d)     0.00005       4.36890
   217    C    5  f(0)   Ryd( 4f)     0.00012       1.42068
   218    C    5  f(0)   Ryd( 5f)     0.00009       3.48196
   219    C    5  f(C1)  Ryd( 4f)     0.00030       2.08306
   220    C    5  f(C1)  Ryd( 5f)     0.00023       3.74127
   221    C    5  f(S1)  Ryd( 4f)     0.00047       1.85832
   222    C    5  f(S1)  Ryd( 5f)     0.00013       3.62032
   223    C    5  f(C2)  Ryd( 4f)     0.00013       1.41655
   224    C    5  f(C2)  Ryd( 5f)     0.00003       3.56568
   225    C    5  f(S2)  Ryd( 4f)     0.00043       1.40792
   226    C    5  f(S2)  Ryd( 5f)     0.00002       3.55858
   227    C    5  f(C3)  Ryd( 4f)     0.00116       2.11362
   228    C    5  f(C3)  Ryd( 5f)     0.00018       4.69468
   229    C    5  f(S3)  Ryd( 4f)     0.00049       3.70076
   230    C    5  f(S3)  Ryd( 5f)     0.00014       4.23947
 
   231    C    6  S      Cor( 1S)     1.99884     -10.39764
   232    C    6  S      Val( 2S)     0.88949      -0.14479
   233    C    6  S      Ryd( 3S)     0.00109       2.09534
   234    C    6  S      Ryd( 4S)     0.00008       2.45956
   235    C    6  S      Ryd( 5S)     0.00003       3.34015
   236    C    6  px     Val( 2p)     1.10497      -0.13063
   237    C    6  px     Ryd( 5p)     0.00560       2.37636
   238    C    6  px     Ryd( 4p)     0.00007       1.96292
   239    C    6  px     Ryd( 3p)     0.00005       1.29561
   240    C    6  py     Val( 2p)     1.13729      -0.13196
   241    C    6  py     Ryd( 5p)     0.00493       2.19056
   242    C    6  py     Ryd( 4p)     0.00007       1.86638
   243    C    6  py     Ryd( 3p)     0.00003       1.34692
   244    C    6  pz     Val( 2p)     1.06417      -0.16025
   245    C    6  pz     Ryd( 4p)     0.00106       0.97033
   246    C    6  pz     Ryd( 5p)     0.00010       1.59868
   247    C    6  pz     Ryd( 3p)     0.00003       0.87595
   248    C    6  dxy    Ryd( 3d)     0.00153       3.13331
   249    C    6  dxy    Ryd( 4d)     0.00023       3.59045
   250    C    6  dxy    Ryd( 5d)     0.00003       5.48757
   251    C    6  dxz    Ryd( 3d)     0.00024       1.59611
   252    C    6  dxz    Ryd( 5d)     0.00010       2.85009
   253    C    6  dxz    Ryd( 4d)     0.00004       2.29460
   254    C    6  dyz    Ryd( 3d)     0.00027       1.55059
   255    C    6  dyz    Ryd( 5d)     0.00007       2.73797
   256    C    6  dyz    Ryd( 4d)     0.00002       2.45872
   257    C    6  dx2y2  Ryd( 3d)     0.00120       3.29359
   258    C    6  dx2y2  Ryd( 4d)     0.00028       3.75655
   259    C    6  dx2y2  Ryd( 5d)     0.00007       5.06935
   260    C    6  dz2    Ryd( 3d)     0.00083       1.87994
   261    C    6  dz2    Ryd( 4d)     0.00018       3.77432
   262    C    6  dz2    Ryd( 5d)     0.00005       4.13056
   263    C    6  f(0)   Ryd( 4f)     0.00044       1.59025
   264    C    6  f(0)   Ryd( 5f)     0.00022       3.42111
   265    C    6  f(C1)  Ryd( 4f)     0.00049       2.02825
   266    C    6  f(C1)  Ryd( 5f)     0.00039       3.63492
   267    C    6  f(S1)  Ryd( 4f)     0.00078       2.01199
   268    C    6  f(S1)  Ryd( 5f)     0.00031       3.62406
   269    C    6  f(C2)  Ryd( 4f)     0.00050       1.50358
   270    C    6  f(C2)  Ryd( 5f)     0.00003       3.41857
   271    C    6  f(S2)  Ryd( 4f)     0.00083       1.53942
   272    C    6  f(S2)  Ryd( 5f)     0.00005       3.38637
   273    C    6  f(C3)  Ryd( 4f)     0.00174       2.70280
   274    C    6  f(C3)  Ryd( 5f)     0.00027       4.25387
   275    C    6  f(S3)  Ryd( 4f)     0.00129       2.97884
   276    C    6  f(S3)  Ryd( 5f)     0.00011       4.61977
 
   277    C    7  S      Cor( 1S)     1.99908     -10.55133
   278    C    7  S      Val( 2S)     0.77858      -0.11597
   279    C    7  S      Ryd( 3S)     0.00368       2.00599
   280    C    7  S      Ryd( 4S)     0.00011       2.19196
   281    C    7  S      Ryd( 5S)     0.00007       2.40833
   282    C    7  px     Val( 2p)     0.89926      -0.05219
   283    C    7  px     Ryd( 5p)     0.00978       1.58447
   284    C    7  px     Ryd( 3p)     0.00023       1.25816
   285    C    7  px     Ryd( 4p)     0.00002       1.30422
   286    C    7  py     Val( 2p)     0.74513      -0.04954
   287    C    7  py     Ryd( 5p)     0.00884       1.62717
   288    C    7  py     Ryd( 3p)     0.00009       1.33515
   289    C    7  py     Ryd( 4p)     0.00004       1.58091
   290    C    7  pz     Val( 2p)     0.75713      -0.14010
   291    C    7  pz     Ryd( 5p)     0.00061       1.12985
   292    C    7  pz     Ryd( 3p)     0.00010       0.78671
   293    C    7  pz     Ryd( 4p)     0.00002       0.91613
   294    C    7  dxy    Ryd( 4d)     0.00119       3.13195
   295    C    7  dxy    Ryd( 3d)     0.00018       2.97447
   296    C    7  dxy    Ryd( 5d)     0.00007       3.54431
   297    C    7  dxz    Ryd( 5d)     0.00134       2.30342
   298    C    7  dxz    Ryd( 4d)     0.00006       2.27944
   299    C    7  dxz    Ryd( 3d)     0.00005       2.27874
   300    C    7  dyz    Ryd( 3d)     0.00183       2.23547
   301    C    7  dyz    Ryd( 4d)     0.00001       2.27773
   302    C    7  dyz    Ryd( 5d)     0.00004       2.32303
   303    C    7  dx2y2  Ryd( 4d)     0.00176       3.12062
   304    C    7  dx2y2  Ryd( 3d)     0.00029       2.92254
   305    C    7  dx2y2  Ryd( 5d)     0.00006       3.37423
   306    C    7  dz2    Ryd( 3d)     0.00042       3.03556
   307    C    7  dz2    Ryd( 4d)     0.00049       3.17567
   308    C    7  dz2    Ryd( 5d)     0.00010       3.58777
   309    C    7  f(0)   Ryd( 5f)     0.00010       3.56630
   310    C    7  f(0)   Ryd( 4f)     0.00002       2.39010
   311    C    7  f(C1)  Ryd( 5f)     0.00014       3.76439
   312    C    7  f(C1)  Ryd( 4f)     0.00003       3.39496
   313    C    7  f(S1)  Ryd( 5f)     0.00007       3.69612
   314    C    7  f(S1)  Ryd( 4f)     0.00003       3.21215
   315    C    7  f(C2)  Ryd( 5f)     0.00002       3.57373
   316    C    7  f(C2)  Ryd( 4f)     0.00003       2.75176
   317    C    7  f(S2)  Ryd( 5f)     0.00001       3.55138
   318    C    7  f(S2)  Ryd( 4f)     0.00004       2.61535
   319    C    7  f(C3)  Ryd( 5f)     0.00005       4.61007
   320    C    7  f(C3)  Ryd( 4f)     0.00003       4.25138
   321    C    7  f(S3)  Ryd( 4f)     0.00007       4.65063
   322    C    7  f(S3)  Ryd( 5f)     0.00003       8.11120
 
   323    O    8  S      Cor( 1S)     1.99979     -19.33913
   324    O    8  S      Val( 2S)     1.70672      -1.01386
   325    O    8  S      Ryd( 4S)     0.00050       2.88699
   326    O    8  S      Ryd( 3S)     0.00018       1.81843
   327    O    8  S      Ryd( 5S)     0.00001       8.46827
   328    O    8  px     Val( 2p)     1.62489      -0.34586
   329    O    8  px     Ryd( 4p)     0.00061       1.57604
   330    O    8  px     Ryd( 3p)     0.00014       1.04250
   331    O    8  px     Ryd( 5p)     0.00005       4.86438
   332    O    8  py     Val( 2p)     1.79140      -0.35543
   333    O    8  py     Ryd( 4p)     0.00168       1.29191
   334    O    8  py     Ryd( 3p)     0.00006       0.95387
   335    O    8  py     Ryd( 5p)     0.00002       4.56007
   336    O    8  pz     Val( 2p)     1.44829      -0.30123
   337    O    8  pz     Ryd( 4p)     0.00053       1.05932
   338    O    8  pz     Ryd( 3p)     0.00002       0.71969
   339    O    8  pz     Ryd( 5p)     0.00001       3.94027
   340    O    8  dxy    Ryd( 3d)     0.00754       1.99414
   341    O    8  dxy    Ryd( 4d)     0.00010       2.88722
   342    O    8  dxy    Ryd( 5d)     0.00002       6.72453
   343    O    8  dxz    Ryd( 3d)     0.00483       1.53907
   344    O    8  dxz    Ryd( 4d)     0.00001       1.57470
   345    O    8  dxz    Ryd( 5d)     0.00002       6.54463
   346    O    8  dyz    Ryd( 3d)     0.00187       1.46993
   347    O    8  dyz    Ryd( 4d)     0.00002       1.52596
   348    O    8  dyz    Ryd( 5d)     0.00001       6.53266
   349    O    8  dx2y2  Ryd( 3d)     0.00580       1.90987
   350    O    8  dx2y2  Ryd( 4d)     0.00008       2.19959
   351    O    8  dx2y2  Ryd( 5d)     0.00006       6.66387
   352    O    8  dz2    Ryd( 3d)     0.00278       1.65210
   353    O    8  dz2    Ryd( 4d)     0.00008       2.40514
   354    O    8  dz2    Ryd( 5d)     0.00000       6.63138
   355    O    8  f(0)   Ryd( 4f)     0.00012       3.19110
   356    O    8  f(0)   Ryd( 5f)     0.00000       5.42605
   357    O    8  f(C1)  Ryd( 4f)     0.00013       3.71276
   358    O    8  f(C1)  Ryd( 5f)     0.00001       5.69688
   359    O    8  f(S1)  Ryd( 4f)     0.00005       3.33380
   360    O    8  f(S1)  Ryd( 5f)     0.00001       5.56835
   361    O    8  f(C2)  Ryd( 4f)     0.00006       3.13824
   362    O    8  f(C2)  Ryd( 5f)     0.00000       5.63586
   363    O    8  f(S2)  Ryd( 4f)     0.00024       3.25036
   364    O    8  f(S2)  Ryd( 5f)     0.00002       5.54932
   365    O    8  f(C3)  Ryd( 4f)     0.00036       3.66552
   366    O    8  f(C3)  Ryd( 5f)     0.00003       5.88246
   367    O    8  f(S3)  Ryd( 4f)     0.00039       4.12116
   368    O    8  f(S3)  Ryd( 5f)     0.00001       6.03163
 
   369    O    9  S      Cor( 1S)     1.99978     -19.46927
   370    O    9  S      Val( 2S)     1.67663      -1.04497
   371    O    9  S      Ryd( 3S)     0.00039       1.74707
   372    O    9  S      Ryd( 4S)     0.00006       2.44106
   373    O    9  S      Ryd( 5S)     0.00001       9.45114
   374    O    9  px     Val( 2p)     1.61709      -0.39342
   375    O    9  px     Ryd( 3p)     0.00046       1.19443
   376    O    9  px     Ryd( 4p)     0.00009       1.42607
   377    O    9  px     Ryd( 5p)     0.00005       4.56275
   378    O    9  py     Val( 2p)     1.54293      -0.38922
   379    O    9  py     Ryd( 4p)     0.00096       1.10092
   380    O    9  py     Ryd( 3p)     0.00008       1.05188
   381    O    9  py     Ryd( 5p)     0.00004       4.62389
   382    O    9  pz     Val( 2p)     1.84367      -0.42282
   383    O    9  pz     Ryd( 4p)     0.00105       0.88361
   384    O    9  pz     Ryd( 3p)     0.00001       0.81585
   385    O    9  pz     Ryd( 5p)     0.00000       3.81289
   386    O    9  dxy    Ryd( 3d)     0.00271       1.63888
   387    O    9  dxy    Ryd( 4d)     0.00010       2.33815
   388    O    9  dxy    Ryd( 5d)     0.00005       6.56001
   389    O    9  dxz    Ryd( 3d)     0.00182       1.15404
   390    O    9  dxz    Ryd( 4d)     0.00004       1.96472
   391    O    9  dxz    Ryd( 5d)     0.00001       6.32150
   392    O    9  dyz    Ryd( 3d)     0.00297       1.38236
   393    O    9  dyz    Ryd( 4d)     0.00005       1.77206
   394    O    9  dyz    Ryd( 5d)     0.00003       6.39459
   395    O    9  dx2y2  Ryd( 3d)     0.00705       2.11376
   396    O    9  dx2y2  Ryd( 4d)     0.00009       2.35017
   397    O    9  dx2y2  Ryd( 5d)     0.00005       6.91346
   398    O    9  dz2    Ryd( 3d)     0.00301       1.53286
   399    O    9  dz2    Ryd( 4d)     0.00012       2.42987
   400    O    9  dz2    Ryd( 5d)     0.00001       6.59768
   401    O    9  f(0)   Ryd( 4f)     0.00050       2.80453
   402    O    9  f(0)   Ryd( 5f)     0.00001       5.88355
   403    O    9  f(C1)  Ryd( 4f)     0.00016       3.24951
   404    O    9  f(C1)  Ryd( 5f)     0.00001       6.18399
   405    O    9  f(S1)  Ryd( 4f)     0.00020       3.54941
   406    O    9  f(S1)  Ryd( 5f)     0.00001       6.10533
   407    O    9  f(C2)  Ryd( 4f)     0.00001       2.95865
   408    O    9  f(C2)  Ryd( 5f)     0.00001       5.96324
   409    O    9  f(S2)  Ryd( 4f)     0.00009       2.78305
   410    O    9  f(S2)  Ryd( 5f)     0.00000       6.01030
   411    O    9  f(C3)  Ryd( 4f)     0.00011       3.98693
   412    O    9  f(C3)  Ryd( 5f)     0.00003       6.45579
   413    O    9  f(S3)  Ryd( 4f)     0.00007       4.28073
   414    O    9  f(S3)  Ryd( 5f)     0.00004       6.46146
 
   415    C   10  S      Cor( 1S)     1.99926     -10.42023
   416    C   10  S      Val( 2S)     0.83103      -0.10781
   417    C   10  S      Ryd( 4S)     0.00640       1.94326
   418    C   10  S      Ryd( 5S)     0.00010       2.84229
   419    C   10  S      Ryd( 3S)     0.00002       1.58291
   420    C   10  px     Val( 2p)     0.97566      -0.00578
   421    C   10  px     Ryd( 4p)     0.00992       1.76042
   422    C   10  px     Ryd( 3p)     0.00011       1.72349
   423    C   10  px     Ryd( 5p)     0.00004       1.88472
   424    C   10  py     Val( 2p)     0.95024      -0.05224
   425    C   10  py     Ryd( 4p)     0.00731       1.49144
   426    C   10  py     Ryd( 3p)     0.00011       1.28434
   427    C   10  py     Ryd( 5p)     0.00004       1.63984
   428    C   10  pz     Val( 2p)     0.93948      -0.10813
   429    C   10  pz     Ryd( 4p)     0.00053       1.05633
   430    C   10  pz     Ryd( 3p)     0.00005       0.67628
   431    C   10  pz     Ryd( 5p)     0.00002       1.15518
   432    C   10  dxy    Ryd( 5d)     0.00038       5.25295
   433    C   10  dxy    Ryd( 3d)     0.00026       1.49331
   434    C   10  dxy    Ryd( 4d)     0.00005       4.24605
   435    C   10  dxz    Ryd( 5d)     0.00032       3.42324
   436    C   10  dxz    Ryd( 3d)     0.00005       0.83138
   437    C   10  dxz    Ryd( 4d)     0.00001       2.39589
   438    C   10  dyz    Ryd( 5d)     0.00017       3.23443
   439    C   10  dyz    Ryd( 3d)     0.00002       0.77043
   440    C   10  dyz    Ryd( 4d)     0.00000       2.27801
   441    C   10  dx2y2  Ryd( 5d)     0.00041       3.95538
   442    C   10  dx2y2  Ryd( 3d)     0.00016       1.20364
   443    C   10  dx2y2  Ryd( 4d)     0.00002       2.95477
   444    C   10  dz2    Ryd( 4d)     0.00016       3.92611
   445    C   10  dz2    Ryd( 3d)     0.00016       1.04810
   446    C   10  dz2    Ryd( 5d)     0.00003       4.14637
   447    C   10  f(0)   Ryd( 4f)     0.00019       2.24505
   448    C   10  f(0)   Ryd( 5f)     0.00005       2.58388
   449    C   10  f(C1)  Ryd( 4f)     0.00165       2.60659
   450    C   10  f(C1)  Ryd( 5f)     0.00002       3.10532
   451    C   10  f(S1)  Ryd( 4f)     0.00089       2.33539
   452    C   10  f(S1)  Ryd( 5f)     0.00003       2.77630
   453    C   10  f(C2)  Ryd( 4f)     0.00005       2.25690
   454    C   10  f(C2)  Ryd( 5f)     0.00002       2.34327
   455    C   10  f(S2)  Ryd( 4f)     0.00023       2.38817
   456    C   10  f(S2)  Ryd( 5f)     0.00012       2.60429
   457    C   10  f(C3)  Ryd( 5f)     0.00085       3.08198
   458    C   10  f(C3)  Ryd( 4f)     0.00021       2.98558
   459    C   10  f(S3)  Ryd( 4f)     0.00349       3.42291
   460    C   10  f(S3)  Ryd( 5f)     0.00006       3.84329
 
   461    N   11  S      Cor( 1S)     1.99962     -14.48514
   462    N   11  S      Val( 2S)     1.58856      -0.66312
   463    N   11  S      Ryd( 4S)     0.00259       2.65864
   464    N   11  S      Ryd( 3S)     0.00022       1.80942
   465    N   11  S      Ryd( 5S)     0.00001       9.31912
   466    N   11  px     Val( 2p)     1.34829      -0.19614
   467    N   11  px     Ryd( 4p)     0.00111       1.13071
   468    N   11  px     Ryd( 5p)     0.00018       5.82800
   469    N   11  px     Ryd( 3p)     0.00005       0.59124
   470    N   11  py     Val( 2p)     1.21966      -0.17866
   471    N   11  py     Ryd( 4p)     0.00070       1.00848
   472    N   11  py     Ryd( 5p)     0.00010       4.98873
   473    N   11  py     Ryd( 3p)     0.00005       0.59158
   474    N   11  pz     Val( 2p)     1.08885      -0.16115
   475    N   11  pz     Ryd( 4p)     0.00076       0.84514
   476    N   11  pz     Ryd( 5p)     0.00002       3.73033
   477    N   11  pz     Ryd( 3p)     0.00006       0.52260
   478    N   11  dxy    Ryd( 3d)     0.00829       2.17191
   479    N   11  dxy    Ryd( 4d)     0.00012       2.42006
   480    N   11  dxy    Ryd( 5d)     0.00003       5.40500
   481    N   11  dxz    Ryd( 4d)     0.00333       1.48169
   482    N   11  dxz    Ryd( 3d)     0.00002       1.12439
   483    N   11  dxz    Ryd( 5d)     0.00002       4.83661
   484    N   11  dyz    Ryd( 4d)     0.00179       1.42055
   485    N   11  dyz    Ryd( 3d)     0.00002       1.10657
   486    N   11  dyz    Ryd( 5d)     0.00002       4.81663
   487    N   11  dx2y2  Ryd( 4d)     0.00553       1.85993
   488    N   11  dx2y2  Ryd( 3d)     0.00007       1.42808
   489    N   11  dx2y2  Ryd( 5d)     0.00001       4.93036
   490    N   11  dz2    Ryd( 3d)     0.00293       1.64484
   491    N   11  dz2    Ryd( 4d)     0.00006       1.79713
   492    N   11  dz2    Ryd( 5d)     0.00001       5.03812
   493    N   11  f(0)   Ryd( 5f)     0.00011       3.73337
   494    N   11  f(0)   Ryd( 4f)     0.00001       2.85859
   495    N   11  f(C1)  Ryd( 5f)     0.00014       3.99935
   496    N   11  f(C1)  Ryd( 4f)     0.00001       3.28130
   497    N   11  f(S1)  Ryd( 5f)     0.00008       3.79352
   498    N   11  f(S1)  Ryd( 4f)     0.00001       3.03315
   499    N   11  f(C2)  Ryd( 5f)     0.00002       3.75825
   500    N   11  f(C2)  Ryd( 4f)     0.00000       3.28012
   501    N   11  f(S2)  Ryd( 5f)     0.00016       3.87105
   502    N   11  f(S2)  Ryd( 4f)     0.00001       2.98645
   503    N   11  f(C3)  Ryd( 5f)     0.00025       4.32560
   504    N   11  f(C3)  Ryd( 4f)     0.00002       3.17402
   505    N   11  f(S3)  Ryd( 5f)     0.00027       4.38116
   506    N   11  f(S3)  Ryd( 4f)     0.00001       3.54278
 
   507    H   12  S      Val( 1S)     0.75434       0.03417
   508    H   12  S      Ryd( 4S)     0.00043       1.97223
   509    H   12  S      Ryd( 2S)     0.00013       0.68956
   510    H   12  S      Ryd( 3S)     0.00005       1.77327
   511    H   12  px     Ryd( 2p)     0.00066       0.91914
   512    H   12  px     Ryd( 4p)     0.00018       4.21003
   513    H   12  px     Ryd( 3p)     0.00005       4.02143
   514    H   12  py     Ryd( 2p)     0.00056       0.87829
   515    H   12  py     Ryd( 4p)     0.00010       4.17779
   516    H   12  py     Ryd( 3p)     0.00009       3.54242
   517    H   12  pz     Ryd( 2p)     0.00012       0.60217
   518    H   12  pz     Ryd( 4p)     0.00002       3.96493
   519    H   12  pz     Ryd( 3p)     0.00002       2.08070
   520    H   12  dxy    Ryd( 3d)     0.00009       2.40940
   521    H   12  dxy    Ryd( 4d)     0.00003       4.43130
   522    H   12  dxz    Ryd( 3d)     0.00001       1.70895
   523    H   12  dxz    Ryd( 4d)     0.00001       3.78473
   524    H   12  dyz    Ryd( 3d)     0.00002       1.68692
   525    H   12  dyz    Ryd( 4d)     0.00001       3.70580
   526    H   12  dx2y2  Ryd( 3d)     0.00003       2.06946
   527    H   12  dx2y2  Ryd( 4d)     0.00002       4.44078
   528    H   12  dz2    Ryd( 3d)     0.00003       2.26883
   529    H   12  dz2    Ryd( 4d)     0.00002       4.14716
 
   530    H   13  S      Val( 1S)     0.77487       0.01747
   531    H   13  S      Ryd( 4S)     0.00032       1.97508
   532    H   13  S      Ryd( 2S)     0.00016       0.73427
   533    H   13  S      Ryd( 3S)     0.00002       1.47443
   534    H   13  px     Ryd( 2p)     0.00015       1.22050
   535    H   13  px     Ryd( 4p)     0.00006       3.40339
   536    H   13  px     Ryd( 3p)     0.00007       2.45727
   537    H   13  py     Ryd( 2p)     0.00080       1.23093
   538    H   13  py     Ryd( 4p)     0.00009       5.15102
   539    H   13  py     Ryd( 3p)     0.00004       3.06828
   540    H   13  pz     Ryd( 2p)     0.00013       1.02858
   541    H   13  pz     Ryd( 4p)     0.00009       3.00338
   542    H   13  pz     Ryd( 3p)     0.00000       2.12576
   543    H   13  dxy    Ryd( 3d)     0.00002       2.00499
   544    H   13  dxy    Ryd( 4d)     0.00002       4.42754
   545    H   13  dxz    Ryd( 3d)     0.00001       1.56175
   546    H   13  dxz    Ryd( 4d)     0.00000       3.42561
   547    H   13  dyz    Ryd( 3d)     0.00001       1.77782
   548    H   13  dyz    Ryd( 4d)     0.00001       3.92836
   549    H   13  dx2y2  Ryd( 3d)     0.00014       2.14620
   550    H   13  dx2y2  Ryd( 4d)     0.00002       4.32367
   551    H   13  dz2    Ryd( 3d)     0.00001       1.91936
   552    H   13  dz2    Ryd( 4d)     0.00002       3.75538
 
   553    H   14  S      Val( 1S)     0.77083       0.01474
   554    H   14  S      Ryd( 4S)     0.00032       1.97170
   555    H   14  S      Ryd( 2S)     0.00012       0.76657
   556    H   14  S      Ryd( 3S)     0.00003       1.79771
   557    H   14  px     Ryd( 2p)     0.00043       0.98499
   558    H   14  px     Ryd( 4p)     0.00013       4.57356
   559    H   14  px     Ryd( 3p)     0.00008       3.58493
   560    H   14  py     Ryd( 2p)     0.00040       1.09198
   561    H   14  py     Ryd( 4p)     0.00006       3.82560
   562    H   14  py     Ryd( 3p)     0.00006       2.57953
   563    H   14  pz     Ryd( 2p)     0.00007       0.75731
   564    H   14  pz     Ryd( 4p)     0.00007       3.36233
   565    H   14  pz     Ryd( 3p)     0.00006       2.15790
   566    H   14  dxy    Ryd( 3d)     0.00005       2.15917
   567    H   14  dxy    Ryd( 4d)     0.00003       4.31623
   568    H   14  dxz    Ryd( 3d)     0.00001       1.45266
   569    H   14  dxz    Ryd( 4d)     0.00001       4.03123
   570    H   14  dyz    Ryd( 3d)     0.00001       1.26094
   571    H   14  dyz    Ryd( 4d)     0.00000       3.78928
   572    H   14  dx2y2  Ryd( 3d)     0.00003       1.93030
   573    H   14  dx2y2  Ryd( 4d)     0.00002       4.33344
   574    H   14  dz2    Ryd( 3d)     0.00002       1.71711
   575    H   14  dz2    Ryd( 4d)     0.00002       3.94054
 
   576    H   15  S      Val( 1S)     0.75460       0.02554
   577    H   15  S      Ryd( 4S)     0.00044       1.91667
   578    H   15  S      Ryd( 2S)     0.00012       0.76795
   579    H   15  S      Ryd( 3S)     0.00003       1.80855
   580    H   15  px     Ryd( 2p)     0.00054       1.05558
   581    H   15  px     Ryd( 4p)     0.00005       4.02230
   582    H   15  px     Ryd( 3p)     0.00005       3.49327
   583    H   15  py     Ryd( 2p)     0.00050       0.73613
   584    H   15  py     Ryd( 4p)     0.00027       5.04595
   585    H   15  py     Ryd( 3p)     0.00004       4.07538
   586    H   15  pz     Ryd( 2p)     0.00021       0.50442
   587    H   15  pz     Ryd( 4p)     0.00002       3.78546
   588    H   15  pz     Ryd( 3p)     0.00004       2.53040
   589    H   15  dxy    Ryd( 3d)     0.00004       1.82124
   590    H   15  dxy    Ryd( 4d)     0.00002       4.56286
   591    H   15  dxz    Ryd( 3d)     0.00004       1.44374
   592    H   15  dxz    Ryd( 4d)     0.00000       3.84804
   593    H   15  dyz    Ryd( 3d)     0.00002       1.40419
   594    H   15  dyz    Ryd( 4d)     0.00002       4.17717
   595    H   15  dx2y2  Ryd( 3d)     0.00003       2.23097
   596    H   15  dx2y2  Ryd( 4d)     0.00002       4.56544
   597    H   15  dz2    Ryd( 3d)     0.00003       2.46738
   598    H   15  dz2    Ryd( 4d)     0.00002       4.21045
 
   599    H   16  S      Val( 1S)     0.48792       0.12626
   600    H   16  S      Ryd( 4S)     0.00115       1.85046
   601    H   16  S      Ryd( 2S)     0.00012       0.50492
   602    H   16  S      Ryd( 3S)     0.00012       1.73995
   603    H   16  px     Ryd( 4p)     0.00014       3.36062
   604    H   16  px     Ryd( 3p)     0.00034       3.06079
   605    H   16  px     Ryd( 2p)     0.00003       3.00942
   606    H   16  py     Ryd( 2p)     0.00028       2.15524
   607    H   16  py     Ryd( 3p)     0.00007       2.65804
   608    H   16  py     Ryd( 4p)     0.00002       3.18975
   609    H   16  pz     Ryd( 2p)     0.00050       1.90800
   610    H   16  pz     Ryd( 3p)     0.00003       2.36751
   611    H   16  pz     Ryd( 4p)     0.00001       2.80051
   612    H   16  dxy    Ryd( 3d)     0.00009       1.30791
   613    H   16  dxy    Ryd( 4d)     0.00001       4.45812
   614    H   16  dxz    Ryd( 3d)     0.00004       1.11586
   615    H   16  dxz    Ryd( 4d)     0.00000       4.23657
   616    H   16  dyz    Ryd( 3d)     0.00008       1.14835
   617    H   16  dyz    Ryd( 4d)     0.00000       3.82472
   618    H   16  dx2y2  Ryd( 3d)     0.00001       1.83464
   619    H   16  dx2y2  Ryd( 4d)     0.00000       4.58975
   620    H   16  dz2    Ryd( 3d)     0.00012       1.62608
   621    H   16  dz2    Ryd( 4d)     0.00001       4.06471

 WARNING:  1 low occupancy (<1.9990e) core orbital  found on  C    4
           1 low occupancy (<1.9990e) core orbital  found on  C    6

 WARNING:  Population inversion found on atom  C    1
           Population inversion found on atom  C    2
           Population inversion found on atom  C    3
           Population inversion found on atom  C    4
           Population inversion found on atom  C    5
           Population inversion found on atom  C    6
           Population inversion found on atom  C    7
           Population inversion found on atom  O    8
           Population inversion found on atom  O    9
           Population inversion found on atom  C   10
           Population inversion found on atom  N   11
           Population inversion found on atom  H   12
           Population inversion found on atom  H   13
           Population inversion found on atom  H   14
           Population inversion found on atom  H   15
           Population inversion found on atom  H   16


 Summary of Natural Population Analysis:                  
                                                          
                                       Natural Population 
                Natural  -----------------------------------------------
    Atom  No    Charge         Core      Valence    Rydberg      Total
 -----------------------------------------------------------------------
      C    1   -0.09953      1.99909     4.07912    0.02132     6.09953
      C    2   -0.20861      1.99913     4.19120    0.01828     6.20861
      C    3   -0.09531      1.99906     4.07950    0.01675     6.09531
      C    4   -0.24129      1.99874     4.21922    0.02333     6.24129
      C    5   -0.06144      1.99907     4.04275    0.01963     6.06144
      C    6   -0.22053      1.99884     4.19592    0.02577     6.22053
      C    7    0.78865      1.99908     3.18010    0.03217     5.21135
      O    8   -0.59954      1.99979     6.57130    0.02845     8.59954
      O    9   -0.70267      1.99978     6.68031    0.02257     8.70267
      C   10    0.26961      1.99926     3.69641    0.03472     5.73039
      N   11   -0.27415      1.99962     5.24536    0.02917     7.27415
      H   12    0.24298      0.00000     0.75434    0.00268     0.75702
      H   13    0.22295      0.00000     0.77487    0.00218     0.77705
      H   14    0.22715      0.00000     0.77083    0.00202     0.77285
      H   15    0.24283      0.00000     0.75460    0.00256     0.75717
      H   16    0.50890      0.00000     0.48792    0.00318     0.49110
 =======================================================================
   * Total *    0.00000     21.99146    53.72375    0.28479    76.00000

                                 Natural Population      
 --------------------------------------------------------
   Core                      21.99146 ( 99.9612% of  22)
   Valence                   53.72375 ( 99.4884% of  54)
   Natural Minimal Basis     75.71521 ( 99.6253% of  76)
   Natural Rydberg Basis      0.28479 (  0.3747% of  76)
 --------------------------------------------------------

    Atom  No          Natural Electron Configuration
 ----------------------------------------------------------------------------
      C    1      [core]2S( 0.95)2p( 3.13)4p( 0.01)
      C    2      [core]2S( 0.95)2p( 3.24)4p( 0.01)
      C    3      [core]2S( 0.94)2p( 3.14)5p( 0.01)
[...]
     6         -0.41108506         -0.00391727         -0.95403466
     6         -0.39209905          0.28785546          1.65133032
     6         -0.22755158          2.82878666          2.84851973
     8         -0.20407015          3.18869699          5.08707496
     8         -0.10591369          4.71315862          1.15140939
     6         -0.58923452         -2.75403547         -4.66480663
     7         -0.60696506         -3.02678988         -6.81542933
     1         -0.50875813         -1.51646250          5.25002330
     1         -0.78910736         -5.84599706          3.42583471
     1         -0.82479794         -6.39480807         -1.22199628
     1         -0.30577769          1.62360954         -2.18036649
     1         -0.00459001          6.27810254          2.08745076

 Electric dipole moment (dipole orientation):
 (Debye = 10**-18 statcoulomb cm , SI units = C m)
                  (au)            (Debye)         (10**-30 SI)
   Tot        0.108077D+01      0.274705D+01      0.916319D+01
   x          0.000000D+00      0.000000D+00      0.000000D+00
   y          0.000000D+00      0.000000D+00      0.000000D+00
   z          0.108077D+01      0.274705D+01      0.916319D+01

 Dipole polarizability, Alpha (dipole orientation).
 (esu units = cm**3 , SI units = C**2 m**2 J**-1)
 Alpha(0;0):
               (au)            (10**-24 esu)      (10**-40 SI)
   iso        0.104519D+03      0.154882D+02      0.172329D+02
   aniso      0.756261D+02      0.112066D+02      0.124691D+02
   xx         0.583919D+02      0.865278D+01      0.962752D+01
   yx         0.382268D+01      0.566463D+00      0.630275D+00
   yy         0.117197D+03      0.173668D+02      0.193232D+02
   zx         0.889470D+00      0.131806D+00      0.146654D+00
   zy         0.136876D+02      0.202829D+01      0.225678D+01
   zz         0.137969D+03      0.204449D+02      0.227480D+02

 ----------------------------------------------------------------------
 Unable to Open any file for archive entry.
 1\1\GINC-AE11\Freq\RM062X\Aug-CC-pVTZ\C8H5N1O2\DHUANG\02-Apr-2025\0\\#
 N Geom=AllCheck Guess=TCheck SCRF=Check GenChk RM062X/Aug-CC-pVTZ Freq
 \\m-CN\\0,1\C,-1.8351513583,-0.5161028141,0.5297478824\C,-1.5991137786
 ,-1.8784844844,0.6142840253\C,-0.3771512189,-2.3963084115,0.2161007011
 \C,0.6115865762,-1.5417394777,-0.2689701154\C,0.3812853162,-0.17221459
 95,-0.3566050619\C,-0.8463791929,0.3338523867,0.0452522079\C,-1.150648
 4733,1.789646764,-0.0252902283\O,-2.1936596084,2.2799814737,0.30845646
 66\O,-0.1270529067,2.5142708129,-0.5071515127\C,1.8777837634,-2.079495
 8262,-0.6814135044\N,2.8877273514,-2.5134495528,-1.0097435459\H,-2.780
 41425,-0.0889796931,0.8343769633\H,-2.3662192491,-2.5399063148,0.99041
 90617\H,-0.1791853318,-3.4570866453,0.2765341486\H,1.1496791779,0.4865
 472433,-0.7328933576\H,-0.4104868172,3.4381691388,-0.5176041308\\Versi
 on=ES64L-G16RevC.01\State=1-A\HF=-513.0653232\RMSD=1.598e-09\RMSF=1.75
 0e-05\ZeroPoint=0.1152055\Thermal=0.124072\ETot=-512.9412512\HTot=-512
 .940307\GTot=-512.9848488\Dipole=-0.9870849,0.2804577,0.3392343\Dipole
 Deriv=-0.0112585,0.0874999,-0.0276418,-0.0911285,0.1005186,0.0148041,-
 0.0047947,-0.0531003,-0.0459272,-0.0497877,0.1865384,-0.052185,0.20332
 46,-0.1215802,-0.0776258,-0.054332,-0.0712439,-0.0945639,0.0640642,-0.
 0564962,-0.039508,0.0594789,0.0307448,-0.0340706,-0.0543404,0.0100058,
 -0.0395279,0.0614787,-0.0299502,-0.0102593,-0.0614924,-0.0270039,0.029
 9463,-0.0062262,0.0179587,0.0244743,-0.0179037,-0.0567185,-0.0003324,-
 0.0072562,0.0707578,-0.0111367,-0.0066626,0.0076638,-0.0363136,-0.1403
 552,0.0251858,0.0335594,0.0747866,-0.4594374,0.0247668,0.0272185,0.043
 6093,-0.0595188,1.4802582,-0.0256747,-0.4314939,-0.1852268,2.063767,-0
 .1505381,-0.4110705,-0.2112002,0.5199498,-1.0138477,0.2933976,0.209183
 9,0.421395,-1.0313981,-0.0749323,0.1927805,-0.0262573,-0.4348283,-0.77
 85077,-0.417604,0.2145245,-0.3850495,-1.0349558,0.2334052,0.2103727,0.
 2457978,-0.4661745,0.3327364,-0.1393541,-0.053015,-0.1112699,0.105508,
 0.0475113,-0.0566061,0.058185,0.1604162,-0.4167339,0.0720175,0.0257866
 ,0.0492118,-0.3294928,-0.0180833,0.0287033,-0.0267507,-0.3321341,0.057
 4077,0.0097261,0.02504,0.0206831,0.1121726,-0.006019,0.0236401,-0.0018
 531,0.1178204,0.0194757,-0.0390466,0.0482751,-0.0387427,0.0218419,0.02
 89871,0.048235,0.0291037,0.1113033,0.0855121,0.0264777,0.0142909,0.020
 6947,0.0083904,0.0079475,0.0150303,0.0057492,0.1255774,0.0690306,-0.02
 61344,0.0271872,-0.0248084,0.1087789,0.0123674,0.0270203,0.0128697,0.1
 198569,0.2584308,0.0901356,0.0165878,0.0553997,0.3813881,-0.0273298,0.
 0210318,-0.0405376,0.3295901\Polar=122.0842686,-18.629468,124.8137484,
 -21.9186141,-1.4470227,66.6600412\Quadrupole=-8.1985271,6.6229879,1.57
 55392,11.383243,2.3599138,-4.9382487\PG=C01 [X(C8H5N1O2)]\NImag=0\\0.6
 6612036,-0.05872759,0.69559903,-0.18984280,-0.04786236,0.22511887,-0.1
 3224321,0.00062021,0.02541310,0.65136244,0.07355910,-0.34043126,0.0072
 4789,0.01633115,0.70091316,0.01608407,0.03496937,-0.07575413,-0.197068
 41,-0.07815895,0.22322273,0.01714390,0.08951692,-0.01569947,-0.2910681
 2,0.03555572,0.08152420,0.61237362,0.03674931,-0.00861011,-0.01210337,
 0.10839609,-0.16279154,-0.02863724,-0.04911964,0.74637863,-0.00895042,
 -0.03215782,0.01347503,0.07220820,-0.00095397,-0.09191603,-0.17191970,
 -0.05844024,0.21629992,-0.00843433,-0.02206404,0.00373445,-0.04899953,
 0.00886299,0.02012970,-0.20828767,-0.11744890,0.06917596,0.61794137,-0
 .02424569,-0.06920118,0.01729386,-0.04547867,0.06981883,0.00924353,-0.
 05201729,-0.20643034,0.03775606,-0.03081721,0.66212504,0.00401346,0.01
 646465,-0.00966418,0.02707996,-0.01140938,-0.00188429,0.06080745,0.062
 62366,-0.09691506,-0.17635634,-0.05461434,0.21754977,-0.04874691,-0.04
 661093,0.02712406,-0.03114454,0.03848130,0.00485676,0.05331795,-0.0149
 2871,-0.01514972,-0.11936263,-0.00492055,0.02087232,0.65786655,0.00591
 332,0.07141399,-0.01049391,0.03883884,-0.05069430,-0.00897000,-0.06866
 391,-0.04083270,0.03239695,0.05955189,-0.32160588,0.01004647,0.0162815
 9,0.69726350,0.02040643,0.00946817,-0.00203035,0.00481086,-0.00883413,
 -0.00611445,-0.00827729,0.01197458,0.01004639,0.01262674,0.03454964,-0
 .07531588,-0.19725777,-0.07690861,0.22912813,-0.22752585,-0.04890889,0
 .06723267,0.05222012,-0.06475650,-0.00889957,-0.06726167,-0.01106141,0
 .02448353,0.01130854,0.08554222,-0.01215761,-0.28722177,0.03307998,0.0
 8010719,0.65381813,-0.11571103,-0.19543252,0.06039115,-0.01289194,-0.0
 4075481,0.01100866,-0.00838518,-0.00316008,0.00275166,0.03053848,-0.01
 265656,-0.00895110,0.09795660,-0.15240310,-0.02608985,-0.01806108,0.65
 078096,0.07577693,0.03500241,-0.10035845,-0.01553374,0.03072039,0.0089
 8561,0.02414166,0.00376883,-0.01621996,-0.00512336,-0.02985556,0.01387
 041,0.07180996,-0.00143344,-0.09242066,-0.19040728,-0.05760072,0.22648
 742,0.01639638,-0.01646283,-0.00331669,-0.00203350,-0.00736395,0.00478
 751,-0.00441307,-0.00058370,0.00126545,-0.00451548,0.00402453,0.004549
 84,0.00055695,0.02771535,-0.00364034,-0.09845116,0.00954623,0.00407425
 ,0.86822911,-0.00824467,-0.03031631,0.00728381,-0.00357265,0.00269150,
 0.00204778,-0.00159422,0.00166348,0.00022944,0.00133120,0.00669194,-0.
 00023487,0.01637252,-0.01120838,-0.00475045,0.01950473,-0.20289183,0.0
 0772445,-0.17282519,0.69728720,-0.00436730,0.01040613,0.00245971,0.004
 30259,0.00348878,0.00600395,0.00139494,-0.00015454,-0.00179010,0.00489
 443,-0.00125892,0.00711107,-0.00219059,-0.00906063,0.00229569,0.002799
 61,0.01151352,-0.08705454,-0.22551430,0.00422570,0.30200490,-0.0058019
 0,-0.00555330,0.00297681,0.00053517,0.00166792,-0.00075095,0.00009177,
 -0.00004143,0.00004669,0.00021906,0.00115155,-0.00093605,0.00305082,0.
 00210257,-0.00050372,-0.01579761,0.02946978,0.01048703,-0.58806074,0.2
 4579320,0.16170717,0.69886805,0.00289114,-0.00072954,-0.00098526,0.000
 73835,0.00105684,-0.00052807,0.00173589,-0.00066602,-0.00054887,0.0014
 1231,-0.00297819,-0.00039309,-0.00498348,-0.00600797,0.00297350,0.0470
 6293,-0.02347083,-0.01211017,0.23744772,-0.23865243,-0.06995601,-0.272
 11748,0.23235188,0.00189667,0.00222486,-0.00084412,-0.00063192,-0.0008
 8154,-0.00052626,-0.00018066,0.00012659,0.00025305,-0.00096921,-0.0002
 9415,-0.00144984,0.00040253,0.00028036,0.00224418,0.00823702,-0.005423
 85,0.01927108,0.16277363,-0.07312751,-0.13245818,-0.21801635,0.0780344
 5,0.10665576,0.00033199,0.00122447,0.00018991,0.00090786,0.00033737,-0
 .00057032,0.00057605,-0.00007912,-0.00017968,0.00077266,-0.00142318,-0
 .00040828,-0.00376877,0.00181238,0.00134329,0.00606528,-0.00609891,0.0
 0298323,-0.19839428,-0.05281487,0.05720999,-0.09322911,-0.02191429,0.0
 4956751,0.37431845,0.00620655,-0.00443244,-0.00163275,-0.00079327,-0.0
 0244164,0.00055215,-0.00087526,-0.00088092,0.00045512,-0.00064146,0.00
 000857,0.00014275,-0.00108418,-0.00454141,0.00104138,-0.03351401,-0.03
 570007,0.01882571,-0.07844883,-0.18904163,0.04560743,-0.01122880,0.037
 21810,0.00331727,-0.04222158,0.66071087,-0.00044772,0.00026075,0.00138
 032,-0.00042566,0.00012286,-0.00033298,-0.00007789,0.00015260,0.000086
 69,-0.00050819,0.00044013,-0.00064346,0.00171415,-0.00005982,-0.000267
 87,0.00649041,0.00840234,0.00831674,0.06049086,0.03586254,-0.09326837,
 0.04819962,0.00737927,0.01051439,-0.12226102,-0.06355451,0.09312267,-0
 .00093524,-0.00072798,-0.00000862,0.00147933,-0.00654116,0.00330924,-0
 .03977109,0.00641911,0.01501062,-0.24571194,0.06913123,0.06152113,-0.0
 1460481,0.02158058,0.00345572,0.00697580,0.00093774,0.00041962,0.00034
 436,0.00211178,-0.00006797,0.00013698,-0.00089435,-0.00009392,-0.00054
 702,-0.00093748,0.00031729,1.30295009,-0.00071057,-0.00262646,0.000452
 12,-0.00530525,0.00001890,0.00303520,-0.01027408,0.01632765,0.00205753
 ,0.06957265,-0.11547002,-0.01941988,0.03817337,-0.01553680,-0.01229690
 ,-0.00004015,-0.00640845,0.00190870,0.00144118,0.00025834,-0.00046870,
 0.00030403,-0.00063285,-0.00008721,-0.00007977,0.00016676,0.00000541,-
 0.50845769,0.34069730,-0.00001083,0.00045872,-0.00125751,0.00315121,0.
 00350488,0.00633952,0.01714563,-0.00428679,-0.00408276,0.06146470,-0.0
 1925211,-0.08146964,0.00133349,-0.00599078,0.00200978,0.00054478,0.001
 53705,0.00799197,0.00001786,-0.00072357,0.00096222,-0.00024721,0.00036
 830,-0.00036429,0.00020750,0.00033142,-0.00014920,-0.39647312,0.161002
 37,0.21872358,0.00047329,0.00008801,-0.00011033,-0.00130802,0.00093307
 ,-0.00013426,0.00563141,0.00413139,-0.00216335,-0.00895882,0.01297824,
 0.00829453,0.00002834,-0.00765813,0.00147701,-0.00200501,0.00113044,0.
 00006512,-0.00051579,-0.00207857,0.00034633,-0.00027027,0.00100625,0.0
 0002235,0.00050382,0.00090622,-0.00028193,-1.01082577,0.41762916,0.316
 31293,1.01774991,0.00007928,0.00073848,-0.00009739,0.00154181,0.000121
 73,-0.00077385,-0.00059219,-0.00498312,0.00103244,0.01268068,0.0163033
 0,-0.00470039,-0.00305966,0.00226925,0.00104367,0.00023932,0.00075195,
 -0.00037301,-0.00031039,0.00036414,0.00003248,0.00015450,-0.00018121,-
 0.00001928,0.00002415,-0.00018604,0.00002323,0.41782894,-0.21788623,-0
 .13578932,-0.42920806,0.20249357,-0.00010922,-0.00010070,0.00026699,-0
 .00021212,-0.00054250,-0.00119727,-0.00155921,-0.00076277,0.00201966,0
 .00833257,-0.00481347,0.01468219,0.00088887,0.00279133,0.00064266,0.00
 017906,-0.00071168,-0.00143033,0.00012012,0.00070450,-0.00044001,0.000
 13129,-0.00034299,0.00012116,-0.00016903,-0.00031203,0.00017140,0.3162
 8741,-0.13571340,-0.14084371,-0.32434667,0.13976633,0.12527736,-0.2791
 2888,0.09771146,0.07722204,0.00214223,-0.00055763,0.00139463,0.0021813
 9,0.00038806,0.00203082,0.00042892,-0.00056395,-0.00038745,-0.00076932
 ,-0.00314985,0.00313663,-0.01541419,0.00943375,0.00672999,-0.00285705,
 0.00149688,-0.00066206,0.00179023,0.00112424,-0.00091522,0.00053577,-0
 .00000615,-0.00015712,-0.00024272,0.00004724,-0.00038123,0.00006038,-0
 .00000355,0.00005647,0.29200630,0.09952607,-0.10204879,-0.03028159,0.0
 2634861,-0.00540256,-0.00860382,0.00089540,-0.00537891,0.00132672,-0.0
 0070499,-0.00110088,0.00030892,-0.00299817,-0.00245263,0.00227471,-0.0
 1617698,0.01261360,0.00523433,-0.00270636,0.00050516,0.00044038,0.0011
 6988,-0.00162129,-0.00026789,0.00137480,0.00062454,-0.00058720,0.00008
 772,-0.00001573,-0.00018862,-0.00003874,0.00004304,0.00003579,-0.10626
 056,0.10296254,0.07698982,-0.02959246,-0.06853916,-0.00204664,0.001622
 35,0.00619447,0.00196595,0.00151956,0.00671382,-0.00036944,0.00025526,
 -0.00067256,0.00311714,0.00233235,0.00494069,0.01000564,-0.00449866,0.
 00224084,-0.00012454,-0.00115765,-0.00390041,-0.00092106,-0.00025063,0
 .00014264,-0.00033356,-0.00006196,0.00025519,-0.00038639,-0.00017325,-
 0.00106088,0.00006096,0.00002242,0.00018172,-0.08672474,0.03080554,0.0
 5708139,0.00845270,0.00517539,-0.00229905,-0.20239311,-0.12440273,0.07
 758902,-0.01473152,-0.01834857,0.00945746,-0.00244012,0.00307625,0.003
 32254,-0.00029912,0.00097526,-0.00033822,0.00191585,0.00207762,0.00185
 976,0.00041139,0.00023339,-0.00008997,-0.00002603,-0.00007019,0.000035
 24,-0.00003304,0.00014700,-0.00005752,-0.00070951,-0.00093161,0.000548
 92,-0.00019570,0.00029556,-0.00002929,-0.00004963,-0.00064066,-0.00147
 155,0.20981889,-0.02321335,-0.01374420,0.01111031,-0.12459105,-0.16658
 976,0.06352835,0.01017636,0.01133062,-0.00480791,0.00316921,0.00040766
 ,-0.00031816,0.00101552,-0.00074283,-0.00040105,0.00244574,-0.00500423
 ,0.00067068,-0.00160737,0.00047476,0.00058254,0.00038031,-0.00023865,-
 0.00010850,0.00001221,-0.00083857,0.00008541,0.00048358,0.00059865,-0.
 00020647,0.00009425,-0.00022831,-0.00002878,0.00006587,0.00105576,-0.0
 0068918,0.13250787,0.17300006,0.00133178,0.00032110,0.00359787,0.07761
 313,0.06345672,-0.07771744,0.00580921,0.00603313,0.00099888,0.00331068
 ,-0.00028284,0.00611537,-0.00034335,-0.00038574,-0.00068103,0.00181260
 ,0.00081068,0.00671576,0.00014548,-0.00011704,0.00021285,-0.00002237,0
 .00006268,0.00004358,-0.00004027,0.00003413,-0.00012394,0.00036793,0.0
 0033138,0.00023909,-0.00000354,-0.00010529,-0.00015849,-0.00156193,-0.
 00042064,-0.00348972,-0.08645340,-0.06904146,0.06862084,-0.00390708,0.
 00216550,0.00404987,0.00110226,0.02735753,-0.00185363,-0.06705211,0.05
 312374,0.00284320,0.00737178,-0.02293326,0.00199768,-0.00233792,-0.002
 56059,0.00370255,-0.00134350,-0.00036172,0.00028946,-0.00047549,-0.000
 01168,-0.00027023,0.00027633,0.00006961,-0.00005323,0.00017442,0.00000
 862,-0.00003904,0.00076870,-0.00127927,-0.00170251,-0.00015584,0.00052
 111,0.00015313,-0.00002581,0.00120351,-0.00030776,0.00037475,-0.000697
 57,-0.00159393,0.06479265,0.00202088,0.00098185,0.00006278,-0.00037029
 ,-0.00515210,0.00149435,0.05112702,-0.33743693,0.01839385,0.00571824,-
 0.01311141,0.00013171,-0.00288187,-0.00028430,0.00196840,-0.00021699,0
 .00092595,-0.00012596,-0.00003559,-0.00028449,-0.00010236,-0.00002382,
 -0.00000539,0.00003016,0.00005703,-0.00002505,-0.00000893,0.00026542,0
 .00012225,-0.00064619,-0.00027844,0.00020795,0.00013326,-0.00017963,-0
 .00028509,0.00004966,-0.00001617,0.00055348,-0.00058315,-0.05554974,0.
 35433170,0.00406837,0.00000772,0.00593051,0.00169266,-0.00904367,0.005
 94489,0.00309856,0.01763498,-0.04512670,-0.00166675,0.01102091,0.00413
 435,0.00374370,0.00184626,0.00488360,0.00027086,-0.00007093,-0.0007975
 0,-0.00026721,-0.00011147,-0.00107476,-0.00004124,-0.00000537,0.000176
 09,-0.00004521,0.00000951,0.00009060,-0.00190008,-0.00005914,-0.003411
 79,0.00025540,-0.00017062,0.00034721,-0.00013086,-0.00047598,-0.000319
 97,-0.00168108,-0.00032418,-0.00337361,-0.00724986,-0.02075012,0.03243
 219,-0.00283310,0.00352579,0.00325921,-0.00020148,0.00076513,-0.000429
 23,0.00140149,0.00226396,0.00180211,0.00837995,0.00632757,-0.00213442,
 -0.20609707,-0.12633973,0.07891867,-0.01338749,-0.01762635,0.00894881,
 -0.00212284,-0.00239154,-0.00051103,0.00092739,0.00029577,-0.00013695,
 0.00109250,0.00005593,-0.00035080,0.00060309,-0.00006831,-0.00188838,-
 0.00012650,-0.00019541,0.00025595,-0.00064235,-0.00100518,0.00046145,-
 0.00011350,-0.00014526,-0.00035441,0.00041909,0.00034830,-0.00013061,0
 .21222257,0.00345778,-0.00037344,-0.00038018,0.00075434,-0.00049214,-0
 .00036103,0.00243955,-0.00471587,0.00055917,-0.02132674,-0.01289530,0.
 01038046,-0.12643902,-0.16550413,0.06398231,0.00812943,0.01180049,-0.0
 0405825,0.00061056,0.00186506,-0.00101728,-0.00075180,-0.00010727,0.00
 038483,0.00065337,-0.00349337,0.00022281,-0.00142690,0.00043672,-0.000
 07487,0.00049421,0.00011971,-0.00014159,0.00056911,0.00062118,-0.00026
 586,-0.00011524,0.00001340,-0.00009796,-0.00106676,-0.00054724,0.00050
 006,0.13400764,0.17325993,0.00326790,-0.00040599,0.00573887,-0.0004278
 5,-0.00036518,-0.00086408,0.00177961,0.00062587,0.00614868,0.00140247,
 -0.00012970,0.00437678,0.07893162,0.06394475,-0.07914046,0.00565441,0.
 00573015,0.00134483,-0.00089526,0.00012387,-0.00394853,-0.00000267,-0.
 00001349,0.00066956,-0.00042720,0.00044997,0.00029333,-0.00171460,-0.0
 0059118,-0.00366131,0.00016775,0.00012049,0.00040201,0.00026012,0.0003
 3243,0.00009222,-0.00035825,-0.00008654,-0.00094769,0.00005037,-0.0000
 3775,0.00017832,-0.08746040,-0.06961192,0.06933813,0.00063789,-0.00097
 219,0.00007483,-0.00035789,-0.00022932,0.00003123,-0.00013232,0.000139
 82,0.00003881,0.00028823,0.00016822,-0.00007876,-0.00046775,0.00052047
 ,0.00003224,-0.00389545,-0.00195442,0.00347855,0.01590121,-0.04331031,
 0.00101839,-0.00271015,0.00619556,-0.00193750,-0.08930659,0.16242671,0
 .00739458,0.00008976,-0.00002093,-0.00002373,-0.00008542,0.00000390,0.
 00002066,-0.00001527,-0.00007435,0.00008470,0.00001770,-0.00009632,-0.
 00001760,0.00001780,0.00001567,-0.00001666,0.00047826,0.00001047,-0.00
 022802,0.07954002,0.00044948,-0.00078708,-0.00000512,-0.00056627,0.000
 12914,0.00015356,0.00007491,0.00018615,-0.00005012,0.00016568,0.000094
 43,-0.00005742,-0.00037430,0.00086770,0.00000464,-0.00326833,0.0010095
 3,0.00170160,-0.00044135,-0.03940650,0.00572146,0.00752289,0.00466481,
 -0.00418859,0.11913595,-0.45714769,0.01125310,0.00013946,-0.00005002,-
 0.00004401,-0.00012928,0.00005179,0.00003870,-0.00011531,-0.00011995,0
 .00008251,0.00003683,-0.00004785,-0.00001570,0.00001095,0.00000881,-0.
 00000795,0.00018168,0.00001227,-0.00008578,-0.12282298,0.49053445,-0.0
 0010713,0.00053546,0.00047973,0.00007462,0.00002545,-0.00038423,0.0000
 4701,-0.00007486,0.00000852,-0.00007842,-0.00005830,0.00017497,0.00014
 682,-0.00033554,-0.00022043,0.00364667,0.00120156,0.00305679,-0.004466
 68,0.02202045,0.00288450,-0.00210699,-0.00368425,-0.00444880,0.0129331
 1,-0.00520559,-0.01944552,-0.00004425,0.00001695,0.00003492,0.00003770
 ,-0.00001192,-0.00004257,0.00008992,0.00006694,0.00013973,-0.00003464,
 0.00003494,-0.00005233,-0.00001607,-0.00000974,-0.00001343,-0.00024997
 ,-0.00002069,-0.00002067,-0.00987170,-0.01450089,0.01784882\\0.0000079
 7,0.00000066,-0.00000382,0.00001862,-0.00000689,-0.00000593,-0.0000320
 7,0.00000170,0.00001193,-0.00003229,0.00002839,0.00000893,0.00002093,-
 0.00004008,-0.00000277,-0.00002301,0.00000623,0.00000447,-0.00000455,-
 0.00005959,0.00002091,0.00002265,0.00002202,-0.00001546,-0.00000685,0.
 00002499,-0.00000445,0.00002960,0.00001284,-0.00001281,-0.00001274,-0.
 00001491,0.00000672,0.00001015,0.00000124,-0.00000399,0.00000346,0.000
 00894,-0.00000245,0.00000026,0.00001020,-0.00000144,-0.00000984,-0.000
 01091,0.00000505,0.00000771,0.00001518,-0.00000489\\\@
 The archive entry for this job was punched.


 WE SHOULD BE CAREFUL TO GET OUT OF AN EXPERIENCE ONLY THE WISDOM
 THAT IS IN IT -- AND STOP THERE;
 LEST WE BE LIKE THE CAT THAT SITS DOWN ON A HOT STOVE-LID.
 SHE WILL NEVER SIT DOWN ON A HOT STOVE LID AGAIN;
 BUT ALSO SHE WILL NEVER SIT DOWN ON A COLD ONE ANY MORE.

                                                     -- MARK TWAIN
 Job cpu time:       0 days 12 hours 57 minutes 31.5 seconds.
 Elapsed time:       0 days  0 hours 38 minutes 52.7 seconds.
 File lengths (MBytes):  RWF=    443 Int=      0 D2E=      0 Chk=     35 Scr=      1
 Normal termination of Gaussian 16 at Wed Apr  2 13:15:48 2025.
