 Entering Gaussian System, Link 0=g16
 Initial command:
 /usr/local/gaussian16c01/g16/l1.exe "/scr/dhuang/Gau-43209.inp" -scrdir="/scr/dhuang/"
 Entering Link 1 = /usr/local/gaussian16c01/g16/l1.exe PID=     43210.
  
 Copyright (c) 1988-2019, Gaussian, Inc.  All Rights Reserved.
  
 This is part of the Gaussian(R) 16 program.  It is based on
 the Gaussian(R) 09 system (copyright 2009, Gaussian, Inc.),
 the Gaussian(R) 03 system (copyright 2003, Gaussian, Inc.),
 the Gaussian(R) 98 system (copyright 1998, Gaussian, Inc.),
 the Gaussian(R) 94 system (copyright 1995, Gaussian, Inc.),
 the Gaussian 92(TM) system (copyright 1992, Gaussian, Inc.),
 the Gaussian 90(TM) system (copyright 1990, Gaussian, Inc.),
 the Gaussian 88(TM) system (copyright 1988, Gaussian, Inc.),
 the Gaussian 86(TM) system (copyright 1986, Carnegie Mellon
 University), and the Gaussian 82(TM) system (copyright 1983,
 Carnegie Mellon University). Gaussian is a federally registered
 trademark of Gaussian, Inc.
  
 This software contains proprietary and confidential information,
 including trade secrets, belonging to Gaussian, Inc.
  
 This software is provided under written license and may be
 used, copied, transmitted, or stored only in accord with that
 written license.
  
 The following legend is applicable only to US Government
 contracts under FAR:
  
                    RESTRICTED RIGHTS LEGEND
  
 Use, reproduction and disclosure by the US Government is
 subject to restrictions as set forth in subparagraphs (a)
 and (c) of the Commercial Computer Software - Restricted
 Rights clause in FAR 52.227-19.
  
 Gaussian, Inc.
 340 Quinnipiac St., Bldg. 40, Wallingford CT 06492
  
  
 ---------------------------------------------------------------
 Warning -- This program may not be used in any manner that
 competes with the business of Gaussian, Inc. or will provide
 assistance to any competitor of Gaussian, Inc.  The licensee
 of this program is prohibited from giving any competitor of
 Gaussian, Inc. access to this program.  By using this program,
 the user acknowledges that Gaussian, Inc. is engaged in the
 business of creating and licensing software in the field of
 computational chemistry and represents and warrants to the
 licensee that it is not a competitor of Gaussian, Inc. and that
 it will not use this program in any manner prohibited above.
 ---------------------------------------------------------------
  

 Cite this work as:
 Gaussian 16, Revision C.01,
 M. J. Frisch, G. W. Trucks, H. B. Schlegel, G. E. Scuseria, 
 M. A. Robb, J. R. Cheeseman, G. Scalmani, V. Barone, 
 G. A. Petersson, H. Nakatsuji, X. Li, M. Caricato, A. V. Marenich, 
 J. Bloino, B. G. Janesko, R. Gomperts, B. Mennucci, H. P. Hratchian, 
 J. V. Ortiz, A. F. Izmaylov, J. L. Sonnenberg, D. Williams-Young, 
 F. Ding, F. Lipparini, F. Egidi, J. Goings, B. Peng, A. Petrone, 
 T. Henderson, D. Ranasinghe, V. G. Zakrzewski, J. Gao, N. Rega, 
 G. Zheng, W. Liang, M. Hada, M. Ehara, K. Toyota, R. Fukuda, 
 J. Hasegawa, M. Ishida, T. Nakajima, Y. Honda, O. Kitao, H. Nakai, 
 T. Vreven, K. Throssell, J. A. Montgomery, Jr., J. E. Peralta, 
 F. Ogliaro, M. J. Bearpark, J. J. Heyd, E. N. Brothers, K. N. Kudin, 
 V. N. Staroverov, T. A. Keith, R. Kobayashi, J. Normand, 
 K. Raghavachari, A. P. Rendell, J. C. Burant, S. S. Iyengar, 
 J. Tomasi, M. Cossi, J. M. Millam, M. Klene, C. Adamo, R. Cammi, 
 J. W. Ochterski, R. L. Martin, K. Morokuma, O. Farkas, 
 J. B. Foresman, and D. J. Fox, Gaussian, Inc., Wallingford CT, 2019.
 
 ******************************************
 Gaussian 16:  ES64L-G16RevC.01  3-Jul-2019
                 2-Apr-2025 
 ******************************************
 %nprocshared=20
 Will use up to   20 processors via shared memory.
 %mem=10000MW
 %chk=m-OMe.chk
 ------------------------------------
 # opt freq m062x/aug-cc-pvtz pop=nbo
 ------------------------------------
 1/18=20,19=15,26=3,38=1/1,3;
 2/9=110,12=2,17=6,18=5,40=1/2;
 3/5=16,6=1,7=10,11=2,25=1,30=1,71=1,74=-55/1,2,3;
 4//1;
 5/5=2,38=5/2;
 6/7=2,8=2,9=2,10=2,28=1,40=1/1,7;
 7//1,2,3,16;
 1/18=20,19=15,26=3/3(2);
 2/9=110/2;
 99//99;
 2/9=110/2;
 3/5=16,6=1,7=10,11=2,25=1,30=1,71=1,74=-55/1,2,3;
 4/5=5,16=3,69=1/1;
 5/5=2,38=5/2;
 7//1,2,3,16;
 1/18=20,19=15,26=3/3(-5);
 2/9=110/2;
 6/7=2,8=2,9=2,10=2,19=2,28=1,40=1/1,7;
 99/9=1/99;
 -----
 m-OMe
 -----
 Symbolic Z-matrix:
 Charge =  0 Multiplicity = 1
 C                    -2.3035   -0.537     0.9618 
 C                    -2.0633   -1.8541    1.0253 
 C                    -0.8516   -2.3302    0.708 
 C                     0.1571   -1.5268    0.3195 
 C                    -0.1185   -0.2064    0.2665 
 C                    -1.326     0.3043    0.579 
 C                    -1.5425    1.6507    0.5053 
 O                    -2.608     2.164     0.7746 
 O                    -0.5764    2.5232    0.1227 
 O                     1.3675   -2.1039    0.0131 
 C                     2.4357   -1.2802   -0.3936 
 H                    -3.3136   -0.1872    1.2312 
 H                    -2.8622   -2.5473    1.3388 
 H                    -0.6764   -3.4182    0.7676 
 H                     0.6797    0.483    -0.0463 
 H                    -0.9513    3.4182    0.1436 
 H                     3.3136   -1.9356   -0.591 
 H                     2.1795   -0.7516   -1.3388 
 H                     2.7096   -0.571     0.4192 
 

 GradGradGradGradGradGradGradGradGradGradGradGradGradGradGradGradGradGrad
 Berny optimization.
 Initialization pass.
                           ----------------------------
                           !    Initial Parameters    !
                           ! (Angstroms and Degrees)  !
 --------------------------                            --------------------------
 ! Name  Definition              Value          Derivative Info.                !
 --------------------------------------------------------------------------------
 ! R1    R(1,2)                  1.3403         estimate D2E/DX2                !
 ! R2    R(1,6)                  1.3453         estimate D2E/DX2                !
 ! R3    R(1,12)                 1.1024         estimate D2E/DX2                !
 ! R4    R(2,3)                  1.34           estimate D2E/DX2                !
 ! R5    R(2,13)                 1.1032         estimate D2E/DX2                !
 ! R6    R(3,4)                  1.3468         estimate D2E/DX2                !
 ! R7    R(3,14)                 1.1036         estimate D2E/DX2                !
 ! R8    R(4,5)                  1.3499         estimate D2E/DX2                !
 ! R9    R(4,10)                 1.3755         estimate D2E/DX2                !
 ! R10   R(5,6)                  1.3478         estimate D2E/DX2                !
 ! R11   R(5,15)                 1.1001         estimate D2E/DX2                !
 ! R12   R(6,7)                  1.3657         estimate D2E/DX2                !
 ! R13   R(7,8)                  1.213          estimate D2E/DX2                !
 ! R14   R(7,9)                  1.3568         estimate D2E/DX2                !
 ! R15   R(9,16)                 0.9706         estimate D2E/DX2                !
 ! R16   R(10,11)                1.4089         estimate D2E/DX2                !
 ! R17   R(11,17)                1.1132         estimate D2E/DX2                !
 ! R18   R(11,18)                1.1129         estimate D2E/DX2                !
 ! R19   R(11,19)                1.1129         estimate D2E/DX2                !
 ! A1    A(2,1,6)              119.854          estimate D2E/DX2                !
 ! A2    A(2,1,12)             117.6743         estimate D2E/DX2                !
 ! A3    A(6,1,12)             122.4717         estimate D2E/DX2                !
 ! A4    A(1,2,3)              119.9986         estimate D2E/DX2                !
 ! A5    A(1,2,13)             120.0761         estimate D2E/DX2                !
 ! A6    A(3,2,13)             119.9253         estimate D2E/DX2                !
 ! A7    A(2,3,4)              122.2502         estimate D2E/DX2                !
 ! A8    A(2,3,14)             118.753          estimate D2E/DX2                !
 ! A9    A(4,3,14)             118.9968         estimate D2E/DX2                !
 ! A10   A(3,4,5)              116.2256         estimate D2E/DX2                !
 ! A11   A(3,4,10)             118.2322         estimate D2E/DX2                !
 ! A12   A(5,4,10)             125.5422         estimate D2E/DX2                !
 ! A13   A(4,5,6)              122.9869         estimate D2E/DX2                !
 ! A14   A(4,5,15)             118.4246         estimate D2E/DX2                !
 ! A15   A(6,5,15)             118.5885         estimate D2E/DX2                !
 ! A16   A(1,6,5)              118.6847         estimate D2E/DX2                !
 ! A17   A(1,6,7)              121.1112         estimate D2E/DX2                !
 ! A18   A(5,6,7)              120.2041         estimate D2E/DX2                !
 ! A19   A(6,7,8)              122.9888         estimate D2E/DX2                !
 ! A20   A(6,7,9)              122.4323         estimate D2E/DX2                !
 ! A21   A(8,7,9)              114.5789         estimate D2E/DX2                !
 ! A22   A(7,9,16)             108.1719         estimate D2E/DX2                !
 ! A23   A(4,10,11)            119.0909         estimate D2E/DX2                !
 ! A24   A(10,11,17)           107.7524         estimate D2E/DX2                !
 ! A25   A(10,11,18)           110.3854         estimate D2E/DX2                !
 ! A26   A(10,11,19)           110.3853         estimate D2E/DX2                !
 ! A27   A(17,11,18)           108.0952         estimate D2E/DX2                !
 ! A28   A(17,11,19)           108.0949         estimate D2E/DX2                !
 ! A29   A(18,11,19)           111.9791         estimate D2E/DX2                !
 ! D1    D(6,1,2,3)              0.0072         estimate D2E/DX2                !
 ! D2    D(6,1,2,13)           179.9965         estimate D2E/DX2                !
 ! D3    D(12,1,2,3)          -179.9987         estimate D2E/DX2                !
 ! D4    D(12,1,2,13)           -0.0094         estimate D2E/DX2                !
 ! D5    D(2,1,6,5)             -0.0048         estimate D2E/DX2                !
 ! D6    D(2,1,6,7)           -179.9999         estimate D2E/DX2                !
 ! D7    D(12,1,6,5)          -179.9987         estimate D2E/DX2                !
 ! D8    D(12,1,6,7)             0.0062         estimate D2E/DX2                !
 ! D9    D(1,2,3,4)             -0.016          estimate D2E/DX2                !
 ! D10   D(1,2,3,14)           179.9931         estimate D2E/DX2                !
 ! D11   D(13,2,3,4)           179.9947         estimate D2E/DX2                !
 ! D12   D(13,2,3,14)            0.0038         estimate D2E/DX2                !
 ! D13   D(2,3,4,5)              0.0212         estimate D2E/DX2                !
 ! D14   D(2,3,4,10)           179.9983         estimate D2E/DX2                !
 ! D15   D(14,3,4,5)          -179.9879         estimate D2E/DX2                !
 ! D16   D(14,3,4,10)           -0.0109         estimate D2E/DX2                !
 ! D17   D(3,4,5,6)             -0.019          estimate D2E/DX2                !
 ! D18   D(3,4,5,15)           179.9903         estimate D2E/DX2                !
 ! D19   D(10,4,5,6)          -179.9942         estimate D2E/DX2                !
 ! D20   D(10,4,5,15)            0.0152         estimate D2E/DX2                !
 ! D21   D(3,4,10,11)         -179.9154         estimate D2E/DX2                !
 ! D22   D(5,4,10,11)            0.0593         estimate D2E/DX2                !
 ! D23   D(4,5,6,1)              0.0113         estimate D2E/DX2                !
 ! D24   D(4,5,6,7)           -179.9936         estimate D2E/DX2                !
 ! D25   D(15,5,6,1)          -179.9981         estimate D2E/DX2                !
 ! D26   D(15,5,6,7)            -0.0029         estimate D2E/DX2                !
 ! D27   D(1,6,7,8)             -0.0035         estimate D2E/DX2                !
 ! D28   D(1,6,7,9)           -179.9989         estimate D2E/DX2                !
 ! D29   D(5,6,7,8)           -179.9985         estimate D2E/DX2                !
 ! D30   D(5,6,7,9)              0.0061         estimate D2E/DX2                !
 ! D31   D(6,7,9,16)           179.9992         estimate D2E/DX2                !
 ! D32   D(8,7,9,16)             0.0034         estimate D2E/DX2                !
 ! D33   D(4,10,11,17)         179.9683         estimate D2E/DX2                !
 ! D34   D(4,10,11,18)         -62.1994         estimate D2E/DX2                !
 ! D35   D(4,10,11,19)          62.1365         estimate D2E/DX2                !
 --------------------------------------------------------------------------------
 Trust Radius=3.00D-01 FncErr=1.00D-07 GrdErr=1.00D-06 EigMax=2.50D+02 EigMin=1.00D-04
 Number of steps in this run=     93 maximum allowed number of steps=    114.
 GradGradGradGradGradGradGradGradGradGradGradGradGradGradGradGradGradGrad

                          Input orientation:                          
 ---------------------------------------------------------------------
 Center     Atomic      Atomic             Coordinates (Angstroms)
 Number     Number       Type             X           Y           Z
 ---------------------------------------------------------------------
      1          6           0       -2.303500   -0.537000    0.961800
      2          6           0       -2.063300   -1.854100    1.025300
      3          6           0       -0.851600   -2.330200    0.708000
      4          6           0        0.157100   -1.526800    0.319500
      5          6           0       -0.118500   -0.206400    0.266500
      6          6           0       -1.326000    0.304300    0.579000
      7          6           0       -1.542500    1.650700    0.505300
      8          8           0       -2.608000    2.164000    0.774600
      9          8           0       -0.576400    2.523200    0.122700
     10          8           0        1.367500   -2.103900    0.013100
     11          6           0        2.435700   -1.280200   -0.393600
     12          1           0       -3.313600   -0.187200    1.231200
     13          1           0       -2.862200   -2.547300    1.338800
     14          1           0       -0.676400   -3.418200    0.767600
     15          1           0        0.679700    0.483000   -0.046300
     16          1           0       -0.951300    3.418200    0.143600
     17          1           0        3.313600   -1.935600   -0.591000
     18          1           0        2.179500   -0.751600   -1.338800
     19          1           0        2.709600   -0.571000    0.419200
 ---------------------------------------------------------------------
                    Distance matrix (angstroms):
                    1          2          3          4          5
     1  C    0.000000
     2  C    1.340329   0.000000
     3  C    2.321205   1.339988   0.000000
     4  C    2.728884   2.352755   1.346796   0.000000
     5  C    2.316671   2.659500   2.289735   1.349896   0.000000
     6  C    1.345298   2.324110   2.679979   2.370623   1.347786
     7  C    2.360836   3.581237   4.045491   3.608278   2.352365
     8  O    2.724549   4.062595   4.825682   4.634102   3.474848
     9  O    3.612726   4.710235   4.896305   4.120589   2.771474
    10  O    4.102615   3.585713   2.336344   1.375498   2.423410
    11  C    4.984924   4.752225   3.622480   2.400279   2.848283
    12  H    1.102379   2.093848   3.305697   3.830337   3.337616
    13  H    2.120278   1.103200   2.118385   3.346127   3.762649
    14  H    3.314586   2.106255   1.103626   2.114925   3.298183
    15  H    3.310007   3.759576   3.290584   2.108605   1.100109
    16  H    4.259284   5.459953   5.776901   5.070751   3.721073
    17  H    5.993253   5.615169   4.380868   3.310532   3.937607
    18  H    5.043422   4.980545   3.983583   2.727819   2.855702
    19  H    5.042494   4.979385   3.982504   2.727407   2.855591
                    6          7          8          9         10
     6  C    0.000000
     7  C    1.365686   0.000000
     8  O    2.267216   1.212967   0.000000
     9  O    2.386132   1.356830   2.163654   0.000000
    10  O    3.657132   4.775707   5.882130   5.020041   0.000000
    11  C    4.196067   5.022377   6.218208   4.879054   1.408878
    12  H    2.148835   2.653602   2.496897   4.008404   5.202903
    13  H    3.326985   4.478787   4.751767   5.693308   4.454711
    14  H    3.783458   5.149046   5.906952   5.977134   2.544441
    15  H    2.108499   2.570206   3.782672   2.401825   2.677433
    16  H    3.166441   1.898526   2.171597   0.970573   5.990614
    17  H    5.283175   6.135563   7.330548   5.960064   2.044643
    18  H    4.132966   4.798441   5.990604   4.522752   2.077425
    19  H    4.132524   4.798304   5.990276   4.523249   2.077482
                   11         12         13         14         15
    11  C    0.000000
    12  H    6.073638   0.000000
    13  H    5.716161   2.405288   0.000000
    14  H    3.950265   4.196321   2.421251   0.000000
    15  H    2.512574   4.245894   4.862744   4.209608   0.000000
    16  H    5.816813   4.445475   6.377086   6.870321   3.363275
    17  H    1.113205   7.092045   6.499139   4.468109   3.617147
    18  H    1.112861   6.090780   5.984381   4.438901   2.333280
    19  H    1.112937   6.089793   5.983008   4.437671   2.334117
                   16         17         18         19
    16  H    0.000000
    17  H    6.884198   0.000000
    18  H    5.420946   1.802011   0.000000
    19  H    5.421426   1.802069   1.845044   0.000000
 Stoichiometry    C8H8O3
 Framework group  C1[X(C8H8O3)]
 Deg. of freedom    51
 Full point group                 C1      NOp   1
 Largest Abelian subgroup         C1      NOp   1
 Largest concise Abelian subgroup C1      NOp   1
                         Standard orientation:                         
 ---------------------------------------------------------------------
 Center     Atomic      Atomic             Coordinates (Angstroms)
 Number     Number       Type             X           Y           Z
 ---------------------------------------------------------------------
      1          6           0        0.943087    1.560971    0.000225
      2          6           0       -0.201576    2.258271    0.000156
      3          6           0       -1.377472    1.615748   -0.000037
      4          6           0       -1.461979    0.271606   -0.000487
      5          6           0       -0.290856   -0.399730   -0.000286
      6          6           0        0.907994    0.216130   -0.000048
      7          6           0        2.058443   -0.519780    0.000016
      8          8           0        3.163027   -0.018596    0.000253
      9          8           0        2.054332   -1.876604   -0.000276
     10          8           0       -2.712284   -0.301745   -0.000619
     11          6           0       -2.821750   -1.706363    0.000729
     12          1           0        1.888238    2.128357    0.000407
     13          1           0       -0.177074    3.361199    0.000437
     14          1           0       -2.307283    2.210258    0.000026
     15          1           0       -0.317706   -1.499511   -0.000476
     16          1           0        2.975577   -2.182088   -0.000178
     17          1           0       -3.905114   -1.962383    0.000959
     18          1           0       -2.366291   -2.131566   -0.921344
     19          1           0       -2.366294   -2.129820    0.923698
 ---------------------------------------------------------------------
 Rotational constants (GHZ):           1.9182214           0.8305661           0.5818941
 Standard basis: Aug-CC-pVTZ (5D, 7F)
 There are   805 symmetry adapted cartesian basis functions of A   symmetry.
 There are   690 symmetry adapted basis functions of A   symmetry.
   690 basis functions,  1008 primitive gaussians,   805 cartesian basis functions
    40 alpha electrons       40 beta electrons
       nuclear repulsion energy       593.9427124605 Hartrees.
 NAtoms=   19 NActive=   19 NUniq=   19 SFac= 1.00D+00 NAtFMM=   60 NAOKFM=F Big=F
 Integral buffers will be    131072 words long.
 Raffenetti 2 integral format.
 Two-electron integral symmetry is turned on.
 One-electron integrals computed using PRISM.
 NBasis=   690 RedAO= T EigKep=  1.21D-06  NBF=   690
 NBsUse=   687 1.00D-06 EigRej=  8.94D-07 NBFU=   687
 ExpMin= 2.53D-02 ExpMax= 1.53D+04 ExpMxC= 5.22D+02 IAcc=3 IRadAn=         5 AccDes= 0.00D+00
 Harris functional with IExCor= 1009 and IRadAn=       5 diagonalized for initial guess.
 HarFok:  IExCor= 1009 AccDes= 0.00D+00 IRadAn=         5 IDoV= 1 UseB2=F ITyADJ=14
 ICtDFT=  3500011 ScaDFX=  1.000000  1.000000  1.000000  1.000000
 FoFCou: FMM=F IPFlag=           0 FMFlag=      100000 FMFlg1=           0
         NFxFlg=           0 DoJE=T BraDBF=F KetDBF=T FulRan=T
         wScrn=  0.000000 ICntrl=       500 IOpCl=  0 I1Cent=   200000004 NGrid=           0
         NMat0=    1 NMatS0=      1 NMatT0=    0 NMatD0=    1 NMtDS0=    0 NMtDT0=    0
 Petite list used in FoFCou.
 Requested convergence on RMS density matrix=1.00D-08 within 128 cycles.
 Requested convergence on MAX density matrix=1.00D-06.
 Requested convergence on             energy=1.00D-06.
 No special actions if energy rises.
 SCF Done:  E(RM062X) =  -535.312913537     A.U. after   13 cycles
            NFock= 13  Conv=0.83D-08     -V/T= 2.0037

 **********************************************************************

            Population analysis using the SCF Density.

 **********************************************************************

 Orbital symmetries:
       Occupied  (A) (A) (A) (A) (A) (A) (A) (A) (A) (A) (A) (A)
                 (A) (A) (A) (A) (A) (A) (A) (A) (A) (A) (A) (A)
                 (A) (A) (A) (A) (A) (A) (A) (A) (A) (A) (A) (A)
                 (A) (A) (A) (A)
       Virtual   (A) (A) (A) (A) (A) (A) (A) (A) (A) (A) (A) (A)
                 (A) (A) (A) (A) (A) (A) (A) (A) (A) (A) (A) (A)
                 (A) (A) (A) (A) (A) (A) (A) (A) (A) (A) (A) (A)
                 (A) (A) (A) (A) (A) (A) (A) (A) (A) (A) (A) (A)
                 (A) (A) (A) (A) (A) (A) (A) (A) (A) (A) (A) (A)
                 (A) (A) (A) (A) (A) (A) (A) (A) (A) (A) (A) (A)
                 (A) (A) (A) (A) (A) (A) (A) (A) (A) (A) (A) (A)
                 (A) (A) (A) (A) (A) (A) (A) (A) (A) (A) (A) (A)
                 (A) (A) (A) (A) (A) (A) (A) (A) (A) (A) (A) (A)
                 (A) (A) (A) (A) (A) (A) (A) (A) (A) (A) (A) (A)
                 (A) (A) (A) (A) (A) (A) (A) (A) (A) (A) (A) (A)
                 (A) (A) (A) (A) (A) (A) (A) (A) (A) (A) (A) (A)
                 (A) (A) (A) (A) (A) (A) (A) (A) (A) (A) (A) (A)
                 (A) (A) (A) (A) (A) (A) (A) (A) (A) (A) (A) (A)
                 (A) (A) (A) (A) (A) (A) (A) (A) (A) (A) (A) (A)
                 (A) (A) (A) (A) (A) (A) (A) (A) (A) (A) (A) (A)
                 (A) (A) (A) (A) (A) (A) (A) (A) (A) (A) (A) (A)
                 (A) (A) (A) (A) (A) (A) (A) (A) (A) (A) (A) (A)
                 (A) (A) (A) (A) (A) (A) (A) (A) (A) (A) (A) (A)
                 (A) (A) (A) (A) (A) (A) (A) (A) (A) (A) (A) (A)
                 (A) (A) (A) (A) (A) (A) (A) (A) (A) (A) (A) (A)
                 (A) (A) (A) (A) (A) (A) (A) (A) (A) (A) (A) (A)
                 (A) (A) (A) (A) (A) (A) (A) (A) (A) (A) (A) (A)
                 (A) (A) (A) (A) (A) (A) (A) (A) (A) (A) (A) (A)
                 (A) (A) (A) (A) (A) (A) (A) (A) (A) (A) (A) (A)
                 (A) (A) (A) (A) (A) (A) (A) (A) (A) (A) (A) (A)
                 (A) (A) (A) (A) (A) (A) (A) (A) (A) (A) (A) (A)
                 (A) (A) (A) (A) (A) (A) (A) (A) (A) (A) (A) (A)
                 (A) (A) (A) (A) (A) (A) (A) (A) (A) (A) (A) (A)
                 (A) (A) (A) (A) (A) (A) (A) (A) (A) (A) (A) (A)
                 (A) (A) (A) (A) (A) (A) (A) (A) (A) (A) (A) (A)
                 (A) (A) (A) (A) (A) (A) (A) (A) (A) (A) (A) (A)
                 (A) (A) (A) (A) (A) (A) (A) (A) (A) (A) (A) (A)
                 (A) (A) (A) (A) (A) (A) (A) (A) (A) (A) (A) (A)
                 (A) (A) (A) (A) (A) (A) (A) (A) (A) (A) (A) (A)
                 (A) (A) (A) (A) (A) (A) (A) (A) (A) (A) (A) (A)
                 (A) (A) (A) (A) (A) (A) (A) (A) (A) (A) (A) (A)
                 (A) (A) (A) (A) (A) (A) (A) (A) (A) (A) (A) (A)
                 (A) (A) (A) (A) (A) (A) (A) (A) (A) (A) (A) (A)
                 (A) (A) (A) (A) (A) (A) (A) (A) (A) (A) (A) (A)
                 (A) (A) (A) (A) (A) (A) (A) (A) (A) (A) (A) (A)
                 (A) (A) (A) (A) (A) (A) (A) (A) (A) (A) (A) (A)
                 (A) (A) (A) (A) (A) (A) (A) (A) (A) (A) (A) (A)
                 (A) (A) (A) (A) (A) (A) (A) (A) (A) (A) (A) (A)
                 (A) (A) (A) (A) (A) (A) (A) (A) (A) (A) (A) (A)
                 (A) (A) (A) (A) (A) (A) (A) (A) (A) (A) (A) (A)
                 (A) (A) (A) (A) (A) (A) (A) (A) (A) (A) (A) (A)
                 (A) (A) (A) (A) (A) (A) (A) (A) (A) (A) (A) (A)
                 (A) (A) (A) (A) (A) (A) (A) (A) (A) (A) (A) (A)
                 (A) (A) (A) (A) (A) (A) (A) (A) (A) (A) (A) (A)
                 (A) (A) (A) (A) (A) (A) (A) (A) (A) (A) (A) (A)
                 (A) (A) (A) (A) (A) (A) (A) (A) (A) (A) (A) (A)
                 (A) (A) (A) (A) (A) (A) (A) (A) (A) (A) (A) (A)
                 (A) (A) (A) (A) (A) (A) (A) (A) (A) (A) (A)
 The electronic state is 1-A.
 Alpha  occ. eigenvalues --  -19.66677 -19.66616 -19.60521 -10.67075 -10.60934
 Alpha  occ. eigenvalues --  -10.60555 -10.55396 -10.55263 -10.54994 -10.54817
 Alpha  occ. eigenvalues --  -10.54634  -1.23832  -1.20107  -1.12834  -1.01181
 Alpha  occ. eigenvalues --   -0.90776  -0.87664  -0.80634  -0.77313  -0.71032
 Alpha  occ. eigenvalues --   -0.67557  -0.64092  -0.59889  -0.57359  -0.56432
 Alpha  occ. eigenvalues --   -0.56121  -0.55848  -0.54498  -0.51452  -0.50548
 Alpha  occ. eigenvalues --   -0.47911  -0.47644  -0.44290  -0.42958  -0.41421
 Alpha  occ. eigenvalues --   -0.40931  -0.39153  -0.35479  -0.33751  -0.30296
 Alpha virt. eigenvalues --   -0.03225  -0.00929   0.00117   0.00327   0.01416
 Alpha virt. eigenvalues --    0.01811   0.02355   0.02453   0.02506   0.04214
 Alpha virt. eigenvalues --    0.04577   0.05289   0.05461   0.05759   0.06554
 Alpha virt. eigenvalues --    0.07437   0.07978   0.08104   0.08425   0.08466
 Alpha virt. eigenvalues --    0.08974   0.09080   0.09322   0.09455   0.10268
 Alpha virt. eigenvalues --    0.10737   0.10771   0.11496   0.11498   0.12393
 Alpha virt. eigenvalues --    0.12525   0.13017   0.13190   0.13402   0.13809
 Alpha virt. eigenvalues --    0.15379   0.15498   0.16249   0.17363   0.17873
 Alpha virt. eigenvalues --    0.18103   0.18683   0.19016   0.19583   0.19798
 Alpha virt. eigenvalues --    0.20660   0.20746   0.20925   0.21663   0.21835
 Alpha virt. eigenvalues --    0.22121   0.22956   0.23201   0.23311   0.23837
 Alpha virt. eigenvalues --    0.23838   0.24783   0.25033   0.25264   0.25393
 Alpha virt. eigenvalues --    0.26264   0.26306   0.26498   0.27767   0.28275
 Alpha virt. eigenvalues --    0.28531   0.28974   0.29518   0.29898   0.30982
 Alpha virt. eigenvalues --    0.31419   0.31573   0.32516   0.32677   0.32845
 Alpha virt. eigenvalues --    0.33279   0.33958   0.35159   0.35239   0.35536
 Alpha virt. eigenvalues --    0.35621   0.35913   0.36799   0.37024   0.37031
 Alpha virt. eigenvalues --    0.37299   0.38061   0.38126   0.38450   0.38755
 Alpha virt. eigenvalues --    0.39735   0.39889   0.40307   0.40954   0.41304
 Alpha virt. eigenvalues --    0.41704   0.41956   0.42341   0.42382   0.43163
 Alpha virt. eigenvalues --    0.43549   0.43680   0.44393   0.45105   0.45535
 Alpha virt. eigenvalues --    0.45699   0.45994   0.47254   0.48130   0.48214
 Alpha virt. eigenvalues --    0.48469   0.49460   0.49917   0.51554   0.52221
 Alpha virt. eigenvalues --    0.52891   0.53295   0.54396   0.54771   0.55994
 Alpha virt. eigenvalues --    0.56717   0.56886   0.57283   0.57440   0.58057
 Alpha virt. eigenvalues --    0.58391   0.58727   0.60602   0.61343   0.62396
 Alpha virt. eigenvalues --    0.63302   0.64177   0.64623   0.64798   0.65693
 Alpha virt. eigenvalues --    0.66280   0.66623   0.67924   0.68299   0.69377
 Alpha virt. eigenvalues --    0.70118   0.70416   0.70424   0.71123   0.72062
 Alpha virt. eigenvalues --    0.72154   0.72225   0.73669   0.73846   0.74814
 Alpha virt. eigenvalues --    0.74901   0.75710   0.75762   0.76248   0.77075
 Alpha virt. eigenvalues --    0.77436   0.77819   0.78324   0.78437   0.79122
 Alpha virt. eigenvalues --    0.79475   0.80277   0.80992   0.81434   0.81695
 Alpha virt. eigenvalues --    0.82437   0.82887   0.83817   0.84490   0.84952
 Alpha virt. eigenvalues --    0.85362   0.85758   0.86666   0.86795   0.87156
 Alpha virt. eigenvalues --    0.87645   0.87757   0.88534   0.89003   0.89173
 Alpha virt. eigenvalues --    0.89569   0.90471   0.91189   0.91928   0.92124
 Alpha virt. eigenvalues --    0.93088   0.93942   0.94406   0.94697   0.95308
 Alpha virt. eigenvalues --    0.96273   0.96661   0.97132   0.97137   0.97541
 Alpha virt. eigenvalues --    0.98357   0.98741   1.00669   1.01058   1.01301
 Alpha virt. eigenvalues --    1.01545   1.02213   1.02751   1.02812   1.03705
 Alpha virt. eigenvalues --    1.04976   1.05012   1.05453   1.06416   1.07077
 Alpha virt. eigenvalues --    1.07555   1.08086   1.08402   1.09273   1.09494
 Alpha virt. eigenvalues --    1.10600   1.10716   1.11669   1.12033   1.12240
 Alpha virt. eigenvalues --    1.12691   1.13702   1.14180   1.14930   1.15053
 Alpha virt. eigenvalues --    1.17616   1.17856   1.19667   1.20211   1.21323
 Alpha virt. eigenvalues --    1.21718   1.22080   1.23303   1.24589   1.24872
 Alpha virt. eigenvalues --    1.26015   1.26965   1.27636   1.27914   1.29444
 Alpha virt. eigenvalues --    1.30674   1.30867   1.31710   1.32825   1.33101
 Alpha virt. eigenvalues --    1.34294   1.34946   1.36340   1.36477   1.37237
 Alpha virt. eigenvalues --    1.38081   1.40144   1.40502   1.41003   1.41692
 Alpha virt. eigenvalues --    1.43262   1.43967   1.44317   1.45615   1.45735
 Alpha virt. eigenvalues --    1.45908   1.46417   1.48883   1.49244   1.49281
 Alpha virt. eigenvalues --    1.49655   1.51242   1.52032   1.52774   1.53360
 Alpha virt. eigenvalues --    1.54828   1.55820   1.56043   1.56618   1.57307
 Alpha virt. eigenvalues --    1.58793   1.59739   1.59947   1.60690   1.62096
 Alpha virt. eigenvalues --    1.62220   1.63576   1.64052   1.65854   1.65915
 Alpha virt. eigenvalues --    1.67581   1.68104   1.68529   1.68688   1.68700
 Alpha virt. eigenvalues --    1.70195   1.71353   1.71882   1.73755   1.73828
 Alpha virt. eigenvalues --    1.74086   1.74943   1.77526   1.78294   1.79155
 Alpha virt. eigenvalues --    1.80370   1.81161   1.81392   1.82246   1.82821
 Alpha virt. eigenvalues --    1.84001   1.84864   1.86530   1.86830   1.88492
 Alpha virt. eigenvalues --    1.89228   1.89263   1.90346   1.91865   1.93293
 Alpha virt. eigenvalues --    1.93580   1.93693   1.94875   1.96836   1.97363
 Alpha virt. eigenvalues --    1.99650   1.99921   2.00068   2.01161   2.02109
 Alpha virt. eigenvalues --    2.03569   2.04053   2.04646   2.06112   2.06452
 Alpha virt. eigenvalues --    2.07094   2.08139   2.10902   2.11242   2.12485
 Alpha virt. eigenvalues --    2.13458   2.15198   2.15643   2.17307   2.19520
 Alpha virt. eigenvalues --    2.21778   2.22811   2.23891   2.24233   2.26652
 Alpha virt. eigenvalues --    2.27505   2.28716   2.29524   2.30478   2.33461
 Alpha virt. eigenvalues --    2.33857   2.35486   2.37167   2.37282   2.38482
 Alpha virt. eigenvalues --    2.39167   2.41167   2.42483   2.42650   2.43459
 Alpha virt. eigenvalues --    2.46294   2.46748   2.48345   2.49436   2.50915
 Alpha virt. eigenvalues --    2.54384   2.55090   2.55868   2.57543   2.58430
 Alpha virt. eigenvalues --    2.60416   2.61317   2.63797   2.64316   2.66718
 Alpha virt. eigenvalues --    2.67042   2.68348   2.71244   2.71836   2.75119
 Alpha virt. eigenvalues --    2.76456   2.76694   2.78303   2.78430   2.81226
 Alpha virt. eigenvalues --    2.83125   2.84434   2.84977   2.87397   2.88820
 Alpha virt. eigenvalues --    2.91631   2.92821   2.96285   2.96894   2.98972
 Alpha virt. eigenvalues --    2.99769   3.00738   3.02975   3.03202   3.03790
 Alpha virt. eigenvalues --    3.05842   3.05936   3.09983   3.10548   3.10682
 Alpha virt. eigenvalues --    3.13088   3.13767   3.14024   3.16705   3.16960
 Alpha virt. eigenvalues --    3.19478   3.19825   3.21543   3.22003   3.22034
 Alpha virt. eigenvalues --    3.24230   3.24341   3.26489   3.26804   3.27460
 Alpha virt. eigenvalues --    3.28174   3.28870   3.30235   3.31994   3.32384
 Alpha virt. eigenvalues --    3.33654   3.35575   3.35833   3.36454   3.38591
 Alpha virt. eigenvalues --    3.39817   3.41207   3.42184   3.42260   3.43905
 Alpha virt. eigenvalues --    3.45534   3.47736   3.47798   3.49677   3.49928
 Alpha virt. eigenvalues --    3.50369   3.51812   3.53574   3.53869   3.55137
 Alpha virt. eigenvalues --    3.55586   3.57692   3.58109   3.59920   3.60428
 Alpha virt. eigenvalues --    3.60565   3.63192   3.63891   3.64995   3.65158
 Alpha virt. eigenvalues --    3.68220   3.68368   3.69425   3.70970   3.71368
 Alpha virt. eigenvalues --    3.72744   3.73026   3.75605   3.76071   3.76871
 Alpha virt. eigenvalues --    3.80423   3.80543   3.80821   3.83209   3.83492
 Alpha virt. eigenvalues --    3.85001   3.85617   3.87460   3.87953   3.88224
 Alpha virt. eigenvalues --    3.90787   3.90842   3.91519   3.92739   3.94499
 Alpha virt. eigenvalues --    3.95372   3.96113   3.96690   3.98468   3.99206
 Alpha virt. eigenvalues --    4.00179   4.01507   4.01956   4.02591   4.03697
 Alpha virt. eigenvalues --    4.05236   4.05784   4.07244   4.08172   4.09021
 Alpha virt. eigenvalues --    4.09503   4.13187   4.14794   4.16804   4.17420
 Alpha virt. eigenvalues --    4.19293   4.20407   4.21986   4.23142   4.23555
 Alpha virt. eigenvalues --    4.24129   4.24379   4.26064   4.27749   4.30320
 Alpha virt. eigenvalues --    4.31639   4.33227   4.33748   4.35124   4.38833
 Alpha virt. eigenvalues --    4.40735   4.41155   4.41887   4.44546   4.44796
 Alpha virt. eigenvalues --    4.45439   4.46856   4.47568   4.48918   4.51950
 Alpha virt. eigenvalues --    4.56216   4.57159   4.58218   4.59303   4.60749
 Alpha virt. eigenvalues --    4.61153   4.63485   4.63657   4.66810   4.68466
 Alpha virt. eigenvalues --    4.69439   4.70569   4.70831   4.73200   4.74812
 Alpha virt. eigenvalues --    4.75744   4.76861   4.78750   4.78923   4.79315
 Alpha virt. eigenvalues --    4.83278   4.83957   4.85512   4.88657   4.91050
 Alpha virt. eigenvalues --    4.92446   4.93749   4.98187   4.99889   4.99919
 Alpha virt. eigenvalues --    5.00681   5.01241   5.02605   5.06504   5.06828
 Alpha virt. eigenvalues --    5.09184   5.09764   5.14724   5.15172   5.17273
 Alpha virt. eigenvalues --    5.21024   5.23627   5.23734   5.24530   5.31053
 Alpha virt. eigenvalues --    5.32997   5.38293   5.40619   5.42009   5.46354
 Alpha virt. eigenvalues --    5.52260   5.54467   5.56106   5.57957   5.64477
 Alpha virt. eigenvalues --    5.65408   5.73268   5.77448   5.87880   5.89699
 Alpha virt. eigenvalues --    5.93689   5.97885   6.00053   6.07797   6.12720
 Alpha virt. eigenvalues --    6.19771   6.22205   6.24512   6.24963   6.30674
 Alpha virt. eigenvalues --    6.35518   6.37713   6.39157   6.39775   6.43519
 Alpha virt. eigenvalues --    6.43822   6.48603   6.49554   6.54019   6.55853
 Alpha virt. eigenvalues --    6.59697   6.61051   6.65399   6.68878   6.71124
 Alpha virt. eigenvalues --    6.72812   6.76628   6.78557   6.83324   6.83696
 Alpha virt. eigenvalues --    6.87881   6.90340   6.91590   6.97335   7.02363
 Alpha virt. eigenvalues --    7.06000   7.08692   7.11540   7.14939   7.19941
 Alpha virt. eigenvalues --    7.30846   7.34431   7.35580   7.39020   7.44931
 Alpha virt. eigenvalues --    7.53721   7.71047   7.87243   7.91734   8.03805
 Alpha virt. eigenvalues --    8.06350  15.31892  15.76387  16.02377  16.96679
 Alpha virt. eigenvalues --   17.35475  17.91373  18.23635  19.29546  20.23453
 Alpha virt. eigenvalues --   20.40791  20.87919
          Condensed to atoms (all electrons):
               1          2          3          4          5          6
     1  C    8.503887  -0.332473   0.446498  -0.799597   0.626990  -1.314364
     2  C   -0.332473   6.966167  -0.340750   0.263427  -0.656149   0.194662
     3  C    0.446498  -0.340750   7.318429  -0.797719   0.279900  -0.478351
     4  C   -0.799597   0.263427  -0.797719   7.323806  -0.596592   0.185256
     5  C    0.626990  -0.656149   0.279900  -0.596592   8.960691  -1.047900
     6  C   -1.314364   0.194662  -0.478351   0.185256  -1.047900   7.760902
     7  C   -0.321625   0.051495   0.075327   0.200603  -0.712589  -0.385476
     8  O    0.142070  -0.055371   0.016567  -0.048163   0.119786  -0.385785
     9  O    0.002248  -0.013319   0.019347  -0.057168  -0.022085   0.013518
    10  O    0.022544  -0.017760   0.025017  -0.403061  -0.052922  -0.037492
    11  C    0.004933   0.010963  -0.042061   0.069269  -0.037460  -0.002797
    12  H    0.230090  -0.298256   0.113095  -0.076254   0.001779  -0.271416
    13  H   -0.193651   0.595960  -0.267820   0.088808  -0.064670   0.034326
    14  H    0.072528  -0.272421   0.407563  -0.226521   0.066176  -0.051527
    15  H   -0.129050   0.004847  -0.135207  -0.182624  -0.197616  -0.318189
    16  H   -0.014043   0.004712  -0.003543   0.011400  -0.028452   0.030811
    17  H   -0.002918   0.001085   0.007259  -0.010727   0.011115   0.003153
    18  H    0.001448   0.001732  -0.009362   0.016161  -0.023814   0.003287
    19  H    0.001442   0.001723  -0.009334   0.016237  -0.023869   0.003309
               7          8          9         10         11         12
     1  C   -0.321625   0.142070   0.002248   0.022544   0.004933   0.230090
     2  C    0.051495  -0.055371  -0.013319  -0.017760   0.010963  -0.298256
     3  C    0.075327   0.016567   0.019347   0.025017  -0.042061   0.113095
     4  C    0.200603  -0.048163  -0.057168  -0.403061   0.069269  -0.076254
     5  C   -0.712589   0.119786  -0.022085  -0.052922  -0.037460   0.001779
     6  C   -0.385476  -0.385785   0.013518  -0.037492  -0.002797  -0.271416
     7  C    6.766247   0.010598   0.008195  -0.030720  -0.012988   0.150014
     8  O    0.010598   9.364304  -0.138238   0.001167   0.002632  -0.009825
     9  O    0.008195  -0.138238   8.671048   0.000347   0.000571   0.002256
    10  O   -0.030720   0.001167   0.000347   9.422499   0.032804   0.003293
    11  C   -0.012988   0.002632   0.000571   0.032804   5.968636  -0.000454
    12  H    0.150014  -0.009825   0.002256   0.003293  -0.000454   0.874315
    13  H    0.008598  -0.006369  -0.000805  -0.009779  -0.000230  -0.052839
    14  H   -0.008142   0.000857   0.000896  -0.027929   0.006718  -0.001200
    15  H    0.034334   0.005073  -0.016502  -0.127526  -0.167160  -0.029305
    16  H    0.071009  -0.092164   0.133335  -0.000523  -0.000294   0.000101
    17  H    0.001266   0.000094   0.000763  -0.034308   0.368612  -0.000039
    18  H    0.000201   0.000066  -0.003550  -0.003002   0.357831  -0.000148
    19  H    0.000207   0.000065  -0.003535  -0.002829   0.357835  -0.000144
              13         14         15         16         17         18
     1  C   -0.193651   0.072528  -0.129050  -0.014043  -0.002918   0.001448
     2  C    0.595960  -0.272421   0.004847   0.004712   0.001085   0.001732
     3  C   -0.267820   0.407563  -0.135207  -0.003543   0.007259  -0.009362
     4  C    0.088808  -0.226521  -0.182624   0.011400  -0.010727   0.016161
     5  C   -0.064670   0.066176  -0.197616  -0.028452   0.011115  -0.023814
     6  C    0.034326  -0.051527  -0.318189   0.030811   0.003153   0.003287
     7  C    0.008598  -0.008142   0.034334   0.071009   0.001266   0.000201
     8  O   -0.006369   0.000857   0.005073  -0.092164   0.000094   0.000066
     9  O   -0.000805   0.000896  -0.016502   0.133335   0.000763  -0.003550
    10  O   -0.009779  -0.027929  -0.127526  -0.000523  -0.034308  -0.003002
    11  C   -0.000230   0.006718  -0.167160  -0.000294   0.368612   0.357831
    12  H   -0.052839  -0.001200  -0.029305   0.000101  -0.000039  -0.000148
    13  H    0.722686  -0.022639   0.005732   0.000427  -0.000271   0.000261
    14  H   -0.022639   0.684154  -0.014206  -0.000198   0.001196  -0.000444
    15  H    0.005732  -0.014206   2.230040  -0.011842  -0.001308  -0.039454
    16  H    0.000427  -0.000198  -0.011842   0.603179   0.000001   0.000374
    17  H   -0.000271   0.001196  -0.001308   0.000001   0.422033  -0.031447
    18  H    0.000261  -0.000444  -0.039454   0.000374  -0.031447   0.379005
    19  H    0.000257  -0.000437  -0.039441   0.000373  -0.031426   0.014712
              19
     1  C    0.001442
     2  C    0.001723
     3  C   -0.009334
     4  C    0.016237
     5  C   -0.023869
     6  C    0.003309
     7  C    0.000207
     8  O    0.000065
     9  O   -0.003535
    10  O   -0.002829
    11  C    0.357835
    12  H   -0.000144
    13  H    0.000257
    14  H   -0.000437
    15  H   -0.039441
    16  H    0.000373
    17  H   -0.031426
    18  H    0.014712
    19  H    0.378842
 Mulliken charges:
               1
     1  C   -0.946957
     2  C   -0.110272
     3  C   -0.624857
     4  C    1.023459
     5  C   -0.602318
     6  C    2.064073
     7  C    0.093446
     8  O   -0.927364
     9  O   -0.597319
    10  O   -0.759820
    11  C   -0.917361
    12  H    0.364936
    13  H    0.162018
    14  H    0.385576
    15  H    0.129405
    16  H    0.295337
    17  H    0.295866
    18  H    0.336141
    19  H    0.336012
 Sum of Mulliken charges =   0.00000
 Mulliken charges with hydrogens summed into heavy atoms:
               1
     1  C   -0.582021
     2  C    0.051746
     3  C   -0.239281
     4  C    1.023459
     5  C   -0.472913
     6  C    2.064073
     7  C    0.093446
     8  O   -0.927364
     9  O   -0.301982
    10  O   -0.759820
    11  C    0.050658
 Electronic spatial extent (au):  <R**2>=           1847.5685
 Charge=              0.0000 electrons
 Dipole moment (field-independent basis, Debye):
    X=             -2.2441    Y=             -1.0958    Z=              0.0013  Tot=              2.4974
 Quadrupole moment (field-independent basis, Debye-Ang):
   XX=            -68.6200   YY=            -53.5979   ZZ=            -65.3026
   XY=             -1.0137   XZ=             -0.0062   YZ=             -0.0003
 Traceless Quadrupole moment (field-independent basis, Debye-Ang):
   XX=             -6.1132   YY=              8.9089   ZZ=             -2.7958
   XY=             -1.0137   XZ=             -0.0062   YZ=             -0.0003
 Octapole moment (field-independent basis, Debye-Ang**2):
  XXX=            -21.2566  YYY=             -2.6629  ZZZ=              0.0000  XYY=              3.5254
  XXY=            -35.4911  XXZ=              0.0095  XZZ=              3.2879  YZZ=             -7.4826
  YYZ=              0.0031  XYZ=              0.0040
 Hexadecapole moment (field-independent basis, Debye-Ang**3):
 XXXX=          -1588.9237 YYYY=           -701.1814 ZZZZ=            -74.3960 XXXY=            -48.8625
 XXXZ=             -0.0715 YYYX=            -30.4942 YYYZ=              0.0213 ZZZX=              0.0006
 ZZZY=             -0.0022 XXYY=           -285.8369 XXZZ=           -268.7064 YYZZ=           -149.3906
 XXYZ=             -0.0097 YYXZ=              0.0011 ZZXY=             -1.6612
 N-N= 5.939427124605D+02 E-N=-2.439101516283D+03  KE= 5.333609587497D+02
 ******************************Gaussian NBO Version 3.1******************************
             N A T U R A L   A T O M I C   O R B I T A L   A N D
          N A T U R A L   B O N D   O R B I T A L   A N A L Y S I S
 ******************************Gaussian NBO Version 3.1******************************
       /RESON  / : Allow strongly delocalized NBO set

 Analyzing the SCF density

 Job title: m-OMe                                                           

 Storage needed:   1431180 in NPA,   1906877 in NBO (********** available)
 GSVD:  LWork=       11460 too small for GESVD, short by      913500 words or      913500 for optimal perf.


 NATURAL POPULATIONS:  Natural atomic orbital occupancies 
                                                          
   NAO  Atom  No  lang   Type(AO)    Occupancy      Energy
 ----------------------------------------------------------
     1    C    1  S      Cor( 1S)     1.99908     -10.37710
     2    C    1  S      Val( 2S)     0.93762      -0.17224
     3    C    1  S      Ryd( 4S)     0.00145       1.93144
     4    C    1  S      Ryd( 5S)     0.00011       2.69531
     5    C    1  S      Ryd( 3S)     0.00002       1.89963
     6    C    1  px     Val( 2p)     1.16295      -0.08091
     7    C    1  px     Ryd( 4p)     0.00467       1.93088
     8    C    1  px     Ryd( 5p)     0.00010       2.80655
     9    C    1  px     Ryd( 3p)     0.00007       0.92895
    10    C    1  py     Val( 2p)     1.06435      -0.05260
    11    C    1  py     Ryd( 4p)     0.00403       1.86293
    12    C    1  py     Ryd( 5p)     0.00004       2.35341
    13    C    1  py     Ryd( 3p)     0.00003       1.04623
    14    C    1  pz     Val( 2p)     0.95915      -0.11707
    15    C    1  pz     Ryd( 4p)     0.00090       1.04074
    16    C    1  pz     Ryd( 5p)     0.00007       1.66701
    17    C    1  pz     Ryd( 3p)     0.00004       0.58464
    18    C    1  dxy    Ryd( 3d)     0.00185       2.71529
    19    C    1  dxy    Ryd( 5d)     0.00021       4.07460
    20    C    1  dxy    Ryd( 4d)     0.00009       3.30782
    21    C    1  dxz    Ryd( 3d)     0.00038       1.46055
    22    C    1  dxz    Ryd( 5d)     0.00005       3.28676
    23    C    1  dxz    Ryd( 4d)     0.00006       1.55545
    24    C    1  dyz    Ryd( 3d)     0.00022       1.38547
    25    C    1  dyz    Ryd( 5d)     0.00010       3.22957
    26    C    1  dyz    Ryd( 4d)     0.00002       1.61834
    27    C    1  dx2y2  Ryd( 4d)     0.00187       3.49589
    28    C    1  dx2y2  Ryd( 5d)     0.00024       4.31839
    29    C    1  dx2y2  Ryd( 3d)     0.00005       2.34080
    30    C    1  dz2    Ryd( 3d)     0.00107       1.89213
    31    C    1  dz2    Ryd( 4d)     0.00012       3.98802
    32    C    1  dz2    Ryd( 5d)     0.00007       4.30154
    33    C    1  f(0)   Ryd( 4f)     0.00008       1.49055
    34    C    1  f(0)   Ryd( 5f)     0.00011       3.40669
    35    C    1  f(C1)  Ryd( 4f)     0.00048       1.94642
    36    C    1  f(C1)  Ryd( 5f)     0.00019       3.61510
    37    C    1  f(S1)  Ryd( 4f)     0.00041       1.87706
    38    C    1  f(S1)  Ryd( 5f)     0.00021       3.59385
    39    C    1  f(C2)  Ryd( 4f)     0.00023       1.47635
    40    C    1  f(C2)  Ryd( 5f)     0.00002       3.46916
    41    C    1  f(S2)  Ryd( 4f)     0.00020       1.61410
    42    C    1  f(S2)  Ryd( 5f)     0.00004       3.41088
    43    C    1  f(C3)  Ryd( 4f)     0.00111       1.97887
    44    C    1  f(C3)  Ryd( 5f)     0.00022       4.28317
    45    C    1  f(S3)  Ryd( 4f)     0.00041       2.85942
    46    C    1  f(S3)  Ryd( 5f)     0.00016       3.99983
 
    47    C    2  S      Cor( 1S)     1.99911     -10.37970
    48    C    2  S      Val( 2S)     0.94501      -0.18877
    49    C    2  S      Ryd( 3S)     0.00135       1.87409
    50    C    2  S      Ryd( 5S)     0.00006       2.56677
    51    C    2  S      Ryd( 4S)     0.00002       2.38774
    52    C    2  px     Val( 2p)     1.05751      -0.06475
    53    C    2  px     Ryd( 5p)     0.00384       1.75322
    54    C    2  px     Ryd( 3p)     0.00004       1.19598
    55    C    2  px     Ryd( 4p)     0.00001       1.24446
    56    C    2  py     Val( 2p)     1.18227      -0.08634
    57    C    2  py     Ryd( 4p)     0.00456       1.73753
    58    C    2  py     Ryd( 5p)     0.00004       1.95117
    59    C    2  py     Ryd( 3p)     0.00003       1.55179
    60    C    2  pz     Val( 2p)     0.99443      -0.12406
    61    C    2  pz     Ryd( 4p)     0.00056       1.02483
    62    C    2  pz     Ryd( 5p)     0.00001       1.27754
    63    C    2  pz     Ryd( 3p)     0.00004       0.98392
    64    C    2  dxy    Ryd( 5d)     0.00232       3.66139
    65    C    2  dxy    Ryd( 4d)     0.00028       3.65440
    66    C    2  dxy    Ryd( 3d)     0.00006       2.30748
    67    C    2  dxz    Ryd( 3d)     0.00063       1.61005
    68    C    2  dxz    Ryd( 5d)     0.00001       2.66474
    69    C    2  dxz    Ryd( 4d)     0.00001       2.00342
    70    C    2  dyz    Ryd( 3d)     0.00028       1.50157
    71    C    2  dyz    Ryd( 5d)     0.00006       2.72496
    72    C    2  dyz    Ryd( 4d)     0.00002       1.75790
    73    C    2  dx2y2  Ryd( 3d)     0.00177       2.44546
    74    C    2  dx2y2  Ryd( 5d)     0.00013       3.68286
    75    C    2  dx2y2  Ryd( 4d)     0.00006       2.98106
    76    C    2  dz2    Ryd( 3d)     0.00098       1.87156
    77    C    2  dz2    Ryd( 5d)     0.00008       4.08728
    78    C    2  dz2    Ryd( 4d)     0.00009       3.30607
    79    C    2  f(0)   Ryd( 5f)     0.00012       3.49046
    80    C    2  f(0)   Ryd( 4f)     0.00001       2.31971
    81    C    2  f(C1)  Ryd( 5f)     0.00032       3.78523
    82    C    2  f(C1)  Ryd( 4f)     0.00000       2.98524
    83    C    2  f(S1)  Ryd( 5f)     0.00016       3.67831
    84    C    2  f(S1)  Ryd( 4f)     0.00003       2.79546
    85    C    2  f(C2)  Ryd( 5f)     0.00002       3.69865
    86    C    2  f(C2)  Ryd( 4f)     0.00001       2.38917
    87    C    2  f(S2)  Ryd( 5f)     0.00001       3.58231
    88    C    2  f(S2)  Ryd( 4f)     0.00001       2.57838
    89    C    2  f(C3)  Ryd( 5f)     0.00014       4.42128
    90    C    2  f(C3)  Ryd( 4f)     0.00006       4.24844
    91    C    2  f(S3)  Ryd( 4f)     0.00012       4.21876
    92    C    2  f(S3)  Ryd( 5f)     0.00003       6.07982
 
    93    C    3  S      Cor( 1S)     1.99903     -10.38135
    94    C    3  S      Val( 2S)     0.94997      -0.19154
    95    C    3  S      Ryd( 3S)     0.00134       1.89064
    96    C    3  S      Ryd( 5S)     0.00012       2.92285
    97    C    3  S      Ryd( 4S)     0.00002       1.91116
    98    C    3  px     Val( 2p)     1.16032      -0.08860
    99    C    3  px     Ryd( 4p)     0.00518       1.87003
   100    C    3  px     Ryd( 5p)     0.00012       2.32109
   101    C    3  px     Ryd( 3p)     0.00005       1.19106
   102    C    3  py     Val( 2p)     1.08646      -0.07753
   103    C    3  py     Ryd( 4p)     0.00372       1.86219
   104    C    3  py     Ryd( 5p)     0.00007       2.20161
   105    C    3  py     Ryd( 3p)     0.00002       1.16349
   106    C    3  pz     Val( 2p)     0.98543      -0.12560
   107    C    3  pz     Ryd( 4p)     0.00068       1.02260
   108    C    3  pz     Ryd( 5p)     0.00007       1.41112
   109    C    3  pz     Ryd( 3p)     0.00004       0.79337
   110    C    3  dxy    Ryd( 3d)     0.00167       2.32290
   111    C    3  dxy    Ryd( 5d)     0.00022       4.05786
   112    C    3  dxy    Ryd( 4d)     0.00010       2.76231
   113    C    3  dxz    Ryd( 3d)     0.00041       1.41024
   114    C    3  dxz    Ryd( 5d)     0.00003       3.37981
   115    C    3  dxz    Ryd( 4d)     0.00006       1.41660
   116    C    3  dyz    Ryd( 3d)     0.00049       1.42839
   117    C    3  dyz    Ryd( 5d)     0.00002       3.33383
   118    C    3  dyz    Ryd( 4d)     0.00005       1.43394
   119    C    3  dx2y2  Ryd( 4d)     0.00279       3.51103
   120    C    3  dx2y2  Ryd( 5d)     0.00016       4.37805
   121    C    3  dx2y2  Ryd( 3d)     0.00005       2.01492
   122    C    3  dz2    Ryd( 3d)     0.00135       1.89606
   123    C    3  dz2    Ryd( 4d)     0.00013       4.04593
   124    C    3  dz2    Ryd( 5d)     0.00006       4.07939
   125    C    3  f(0)   Ryd( 4f)     0.00027       1.73407
   126    C    3  f(0)   Ryd( 5f)     0.00009       3.14784
   127    C    3  f(C1)  Ryd( 4f)     0.00057       2.16397
   128    C    3  f(C1)  Ryd( 5f)     0.00010       3.38036
   129    C    3  f(S1)  Ryd( 4f)     0.00049       2.08323
   130    C    3  f(S1)  Ryd( 5f)     0.00015       3.28822
   131    C    3  f(C2)  Ryd( 4f)     0.00005       1.72892
   132    C    3  f(C2)  Ryd( 5f)     0.00004       3.16918
   133    C    3  f(S2)  Ryd( 4f)     0.00015       1.92428
   134    C    3  f(S2)  Ryd( 5f)     0.00009       3.06434
   135    C    3  f(C3)  Ryd( 4f)     0.00064       2.27794
   136    C    3  f(C3)  Ryd( 5f)     0.00034       3.69594
   137    C    3  f(S3)  Ryd( 4f)     0.00058       2.84326
   138    C    3  f(S3)  Ryd( 5f)     0.00015       3.77257
 
   139    C    4  S      Cor( 1S)     1.99855     -10.45538
   140    C    4  S      Val( 2S)     0.82842      -0.12261
   141    C    4  S      Ryd( 3S)     0.00115       2.11097
   142    C    4  S      Ryd( 4S)     0.00010       2.31439
   143    C    4  S      Ryd( 5S)     0.00001       2.39174
   144    C    4  px     Val( 2p)     0.84539      -0.04198
   145    C    4  px     Ryd( 4p)     0.00594       1.79251
   146    C    4  px     Ryd( 5p)     0.00011       1.81693
   147    C    4  px     Ryd( 3p)     0.00003       1.47580
   148    C    4  py     Val( 2p)     1.03105      -0.08135
   149    C    4  py     Ryd( 5p)     0.00332       1.84354
   150    C    4  py     Ryd( 4p)     0.00006       1.64140
   151    C    4  py     Ryd( 3p)     0.00003       1.55822
   152    C    4  pz     Val( 2p)     0.97667      -0.13112
   153    C    4  pz     Ryd( 4p)     0.00079       0.98677
   154    C    4  pz     Ryd( 5p)     0.00021       1.18776
   155    C    4  pz     Ryd( 3p)     0.00002       0.93312
   156    C    4  dxy    Ryd( 3d)     0.00110       3.05475
   157    C    4  dxy    Ryd( 4d)     0.00018       3.38152
   158    C    4  dxy    Ryd( 5d)     0.00005       4.29771
   159    C    4  dxz    Ryd( 3d)     0.00276       1.41026
   160    C    4  dxz    Ryd( 4d)     0.00006       2.52825
   161    C    4  dxz    Ryd( 5d)     0.00007       2.62379
   162    C    4  dyz    Ryd( 3d)     0.00073       1.55872
   163    C    4  dyz    Ryd( 4d)     0.00008       2.47463
   164    C    4  dyz    Ryd( 5d)     0.00002       2.75492
   165    C    4  dx2y2  Ryd( 3d)     0.00187       3.00403
   166    C    4  dx2y2  Ryd( 4d)     0.00028       3.43899
   167    C    4  dx2y2  Ryd( 5d)     0.00008       4.73497
   168    C    4  dz2    Ryd( 3d)     0.00072       1.86101
   169    C    4  dz2    Ryd( 5d)     0.00039       3.76683
   170    C    4  dz2    Ryd( 4d)     0.00005       3.55593
   171    C    4  f(0)   Ryd( 4f)     0.00001       1.49142
   172    C    4  f(0)   Ryd( 5f)     0.00020       3.68116
   173    C    4  f(C1)  Ryd( 4f)     0.00052       1.80624
   174    C    4  f(C1)  Ryd( 5f)     0.00024       3.83590
   175    C    4  f(S1)  Ryd( 4f)     0.00055       1.72084
   176    C    4  f(S1)  Ryd( 5f)     0.00027       3.81668
   177    C    4  f(C2)  Ryd( 4f)     0.00055       1.37021
   178    C    4  f(C2)  Ryd( 5f)     0.00003       3.73371
   179    C    4  f(S2)  Ryd( 4f)     0.00032       1.35959
   180    C    4  f(S2)  Ryd( 5f)     0.00004       3.74263
   181    C    4  f(C3)  Ryd( 4f)     0.00242       2.26365
   182    C    4  f(C3)  Ryd( 5f)     0.00011       4.82856
   183    C    4  f(S3)  Ryd( 4f)     0.00045       3.08214
   184    C    4  f(S3)  Ryd( 5f)     0.00008       4.42545
 
   185    C    5  S      Cor( 1S)     1.99901     -10.38559
   186    C    5  S      Val( 2S)     0.93751      -0.17174
   187    C    5  S      Ryd( 3S)     0.00097       1.86233
   188    C    5  S      Ryd( 5S)     0.00014       2.54572
   189    C    5  S      Ryd( 4S)     0.00002       2.22566
   190    C    5  px     Val( 2p)     1.05669      -0.06907
   191    C    5  px     Ryd( 4p)     0.00235       2.11240
   192    C    5  px     Ryd( 5p)     0.00008       3.02825
   193    C    5  px     Ryd( 3p)     0.00004       0.99942
   194    C    5  py     Val( 2p)     1.18779      -0.09660
   195    C    5  py     Ryd( 4p)     0.00367       1.96404
   196    C    5  py     Ryd( 5p)     0.00009       3.26404
   197    C    5  py     Ryd( 3p)     0.00007       1.08071
   198    C    5  pz     Val( 2p)     1.01580      -0.13390
   199    C    5  pz     Ryd( 4p)     0.00102       1.03618
   200    C    5  pz     Ryd( 5p)     0.00014       1.88741
   201    C    5  pz     Ryd( 3p)     0.00003       0.61154
   202    C    5  dxy    Ryd( 3d)     0.00180       3.50791
   203    C    5  dxy    Ryd( 4d)     0.00033       3.68281
   204    C    5  dxy    Ryd( 5d)     0.00007       3.77703
   205    C    5  dxz    Ryd( 3d)     0.00096       1.46907
   206    C    5  dxz    Ryd( 5d)     0.00005       2.98185
   207    C    5  dxz    Ryd( 4d)     0.00001       2.57033
   208    C    5  dyz    Ryd( 3d)     0.00042       1.22466
   209    C    5  dyz    Ryd( 5d)     0.00013       2.98290
   210    C    5  dyz    Ryd( 4d)     0.00009       2.35468
   211    C    5  dx2y2  Ryd( 3d)     0.00146       2.18707
   212    C    5  dx2y2  Ryd( 4d)     0.00008       3.71974
   213    C    5  dx2y2  Ryd( 5d)     0.00008       4.91830
   214    C    5  dz2    Ryd( 3d)     0.00085       1.48541
   215    C    5  dz2    Ryd( 4d)     0.00017       3.92846
   216    C    5  dz2    Ryd( 5d)     0.00005       4.32107
   217    C    5  f(0)   Ryd( 4f)     0.00042       1.51286
   218    C    5  f(0)   Ryd( 5f)     0.00012       3.44539
   219    C    5  f(C1)  Ryd( 4f)     0.00042       2.19626
   220    C    5  f(C1)  Ryd( 5f)     0.00027       3.67802
   221    C    5  f(S1)  Ryd( 4f)     0.00063       1.92159
   222    C    5  f(S1)  Ryd( 5f)     0.00016       3.58158
   223    C    5  f(C2)  Ryd( 4f)     0.00013       1.55925
   224    C    5  f(C2)  Ryd( 5f)     0.00006       3.46623
   225    C    5  f(S2)  Ryd( 4f)     0.00035       1.49544
   226    C    5  f(S2)  Ryd( 5f)     0.00004       3.49518
   227    C    5  f(C3)  Ryd( 4f)     0.00103       2.07554
   228    C    5  f(C3)  Ryd( 5f)     0.00028       4.49139
   229    C    5  f(S3)  Ryd( 4f)     0.00049       3.64810
   230    C    5  f(S3)  Ryd( 5f)     0.00019       4.24987
 
   231    C    6  S      Cor( 1S)     1.99884     -10.37200
   232    C    6  S      Val( 2S)     0.88332      -0.11392
   233    C    6  S      Ryd( 3S)     0.00116       2.10766
   234    C    6  S      Ryd( 4S)     0.00010       2.57078
   235    C    6  S      Ryd( 5S)     0.00003       3.67884
   236    C    6  px     Val( 2p)     1.10132      -0.10334
   237    C    6  px     Ryd( 5p)     0.00569       2.32883
   238    C    6  px     Ryd( 4p)     0.00008       2.32476
   239    C    6  px     Ryd( 3p)     0.00005       0.94903
   240    C    6  py     Val( 2p)     1.13231      -0.10424
   241    C    6  py     Ryd( 4p)     0.00534       2.20370
   242    C    6  py     Ryd( 5p)     0.00010       2.29484
   243    C    6  py     Ryd( 3p)     0.00003       1.21349
   244    C    6  pz     Val( 2p)     1.06779      -0.13444
   245    C    6  pz     Ryd( 4p)     0.00121       0.96876
   246    C    6  pz     Ryd( 5p)     0.00013       1.93598
   247    C    6  pz     Ryd( 3p)     0.00002       0.63251
   248    C    6  dxy    Ryd( 3d)     0.00243       2.83792
   249    C    6  dxy    Ryd( 4d)     0.00021       3.73995
   250    C    6  dxy    Ryd( 5d)     0.00003       5.30879
   251    C    6  dxz    Ryd( 3d)     0.00039       1.39458
   252    C    6  dxz    Ryd( 5d)     0.00013       2.98852
   253    C    6  dxz    Ryd( 4d)     0.00013       2.39088
   254    C    6  dyz    Ryd( 3d)     0.00049       1.32608
   255    C    6  dyz    Ryd( 5d)     0.00009       2.94703
   256    C    6  dyz    Ryd( 4d)     0.00004       2.57334
   257    C    6  dx2y2  Ryd( 3d)     0.00097       2.94460
   258    C    6  dx2y2  Ryd( 4d)     0.00038       3.72883
   259    C    6  dx2y2  Ryd( 5d)     0.00008       5.45043
   260    C    6  dz2    Ryd( 3d)     0.00108       1.59735
   261    C    6  dz2    Ryd( 5d)     0.00020       4.07933
   262    C    6  dz2    Ryd( 4d)     0.00005       3.78680
   263    C    6  f(0)   Ryd( 4f)     0.00048       1.58961
   264    C    6  f(0)   Ryd( 5f)     0.00024       3.46944
   265    C    6  f(C1)  Ryd( 4f)     0.00052       2.03925
   266    C    6  f(C1)  Ryd( 5f)     0.00046       3.64880
   267    C    6  f(S1)  Ryd( 4f)     0.00075       1.99054
   268    C    6  f(S1)  Ryd( 5f)     0.00035       3.65982
   269    C    6  f(C2)  Ryd( 4f)     0.00064       1.49637
   270    C    6  f(C2)  Ryd( 5f)     0.00004       3.47908
   271    C    6  f(S2)  Ryd( 4f)     0.00092       1.55400
   272    C    6  f(S2)  Ryd( 5f)     0.00006       3.44097
   273    C    6  f(C3)  Ryd( 4f)     0.00207       2.55890
   274    C    6  f(C3)  Ryd( 5f)     0.00029       4.30312
   275    C    6  f(S3)  Ryd( 4f)     0.00108       3.19294
   276    C    6  f(S3)  Ryd( 5f)     0.00009       4.62776
 
   277    C    7  S      Cor( 1S)     1.99907     -10.53275
   278    C    7  S      Val( 2S)     0.77983      -0.09748
   279    C    7  S      Ryd( 4S)     0.00367       2.03404
   280    C    7  S      Ryd( 3S)     0.00020       1.96868
   281    C    7  S      Ryd( 5S)     0.00007       2.36469
   282    C    7  px     Val( 2p)     0.88196      -0.02921
   283    C    7  px     Ryd( 4p)     0.01128       1.57330
   284    C    7  px     Ryd( 3p)     0.00023       0.85818
   285    C    7  px     Ryd( 5p)     0.00004       1.81318
   286    C    7  py     Val( 2p)     0.75990      -0.03419
   287    C    7  py     Ryd( 4p)     0.00761       1.62900
   288    C    7  py     Ryd( 3p)     0.00012       0.84726
   289    C    7  py     Ryd( 5p)     0.00007       2.14350
   290    C    7  pz     Val( 2p)     0.75483      -0.12132
   291    C    7  pz     Ryd( 4p)     0.00059       1.12867
   292    C    7  pz     Ryd( 3p)     0.00007       0.51371
   293    C    7  pz     Ryd( 5p)     0.00002       1.28065
   294    C    7  dxy    Ryd( 5d)     0.00116       4.24453
   295    C    7  dxy    Ryd( 4d)     0.00008       3.46942
   296    C    7  dxy    Ryd( 3d)     0.00004       2.93458
   297    C    7  dxz    Ryd( 5d)     0.00082       3.43489
   298    C    7  dxz    Ryd( 4d)     0.00006       2.02701
   299    C    7  dxz    Ryd( 3d)     0.00006       1.87361
   300    C    7  dyz    Ryd( 5d)     0.00106       3.24707
   301    C    7  dyz    Ryd( 4d)     0.00005       2.11610
   302    C    7  dyz    Ryd( 3d)     0.00002       1.96194
   303    C    7  dx2y2  Ryd( 5d)     0.00111       4.30105
   304    C    7  dx2y2  Ryd( 3d)     0.00007       3.11321
   305    C    7  dx2y2  Ryd( 4d)     0.00004       3.34105
   306    C    7  dz2    Ryd( 5d)     0.00018       4.47989
   307    C    7  dz2    Ryd( 4d)     0.00020       3.53816
   308    C    7  dz2    Ryd( 3d)     0.00007       3.08485
   309    C    7  f(0)   Ryd( 5f)     0.00011       3.31836
   310    C    7  f(0)   Ryd( 4f)     0.00003       2.68828
   311    C    7  f(C1)  Ryd( 5f)     0.00015       3.65486
   312    C    7  f(C1)  Ryd( 4f)     0.00002       3.60517
   313    C    7  f(S1)  Ryd( 5f)     0.00009       3.63449
   314    C    7  f(S1)  Ryd( 4f)     0.00003       3.30938
   315    C    7  f(C2)  Ryd( 5f)     0.00003       3.43580
   316    C    7  f(C2)  Ryd( 4f)     0.00001       3.04300
   317    C    7  f(S2)  Ryd( 5f)     0.00001       3.29979
   318    C    7  f(S2)  Ryd( 4f)     0.00009       2.82611
   319    C    7  f(C3)  Ryd( 5f)     0.00009       4.33114
   320    C    7  f(C3)  Ryd( 4f)     0.00004       4.28989
   321    C    7  f(S3)  Ryd( 4f)     0.00006       4.66549
   322    C    7  f(S3)  Ryd( 5f)     0.00003       8.37172
 
   323    O    8  S      Cor( 1S)     1.99979     -19.32091
   324    O    8  S      Val( 2S)     1.70586      -0.99568
   325    O    8  S      Ryd( 4S)     0.00061       3.14935
   326    O    8  S      Ryd( 3S)     0.00023       1.37571
   327    O    8  S      Ryd( 5S)     0.00001       8.60751
   328    O    8  px     Val( 2p)     1.58934      -0.32870
   329    O    8  px     Ryd( 4p)     0.00059       1.40114
   330    O    8  px     Ryd( 3p)     0.00009       0.56873
   331    O    8  px     Ryd( 5p)     0.00007       5.54019
   332    O    8  py     Val( 2p)     1.82812      -0.33914
   333    O    8  py     Ryd( 4p)     0.00191       1.16301
   334    O    8  py     Ryd( 3p)     0.00014       0.62502
   335    O    8  py     Ryd( 5p)     0.00001       4.80113
   336    O    8  pz     Val( 2p)     1.45741      -0.28507
   337    O    8  pz     Ryd( 4p)     0.00078       0.88694
   338    O    8  pz     Ryd( 3p)     0.00004       0.49963
   339    O    8  pz     Ryd( 5p)     0.00000       4.19708
   340    O    8  dxy    Ryd( 3d)     0.00682       1.92756
   341    O    8  dxy    Ryd( 4d)     0.00010       2.52556
   342    O    8  dxy    Ryd( 5d)     0.00003       6.61263
   343    O    8  dxz    Ryd( 3d)     0.00567       1.54154
   344    O    8  dxz    Ryd( 4d)     0.00002       1.68360
   345    O    8  dxz    Ryd( 5d)     0.00003       6.49028
   346    O    8  dyz    Ryd( 3d)     0.00138       1.40803
   347    O    8  dyz    Ryd( 4d)     0.00004       1.63148
   348    O    8  dyz    Ryd( 5d)     0.00001       6.49967
   349    O    8  dx2y2  Ryd( 3d)     0.00678       1.96225
   350    O    8  dx2y2  Ryd( 4d)     0.00011       2.61704
   351    O    8  dx2y2  Ryd( 5d)     0.00004       6.60852
   352    O    8  dz2    Ryd( 3d)     0.00279       1.63909
   353    O    8  dz2    Ryd( 4d)     0.00010       2.46655
   354    O    8  dz2    Ryd( 5d)     0.00001       6.61151
   355    O    8  f(0)   Ryd( 4f)     0.00013       3.13376
   356    O    8  f(0)   Ryd( 5f)     0.00000       5.51452
   357    O    8  f(C1)  Ryd( 4f)     0.00015       3.65047
   358    O    8  f(C1)  Ryd( 5f)     0.00001       5.79974
   359    O    8  f(S1)  Ryd( 4f)     0.00004       3.16961
   360    O    8  f(S1)  Ryd( 5f)     0.00001       5.57581
   361    O    8  f(C2)  Ryd( 4f)     0.00017       3.12610
   362    O    8  f(C2)  Ryd( 5f)     0.00001       5.66256
   363    O    8  f(S2)  Ryd( 4f)     0.00022       3.15996
   364    O    8  f(S2)  Ryd( 5f)     0.00002       5.65829
   365    O    8  f(C3)  Ryd( 4f)     0.00047       3.64123
   366    O    8  f(C3)  Ryd( 5f)     0.00002       5.96849
   367    O    8  f(S3)  Ryd( 4f)     0.00035       3.90042
   368    O    8  f(S3)  Ryd( 5f)     0.00001       6.06856
 
   369    O    9  S      Cor( 1S)     1.99978     -19.45410
   370    O    9  S      Val( 2S)     1.67670      -1.03079
   371    O    9  S      Ryd( 3S)     0.00037       1.43224
   372    O    9  S      Ryd( 4S)     0.00012       2.66310
   373    O    9  S      Ryd( 5S)     0.00001       9.43272
   374    O    9  px     Val( 2p)     1.65784      -0.38590
   375    O    9  px     Ryd( 4p)     0.00053       1.13865
   376    O    9  px     Ryd( 3p)     0.00015       0.76271
   377    O    9  px     Ryd( 5p)     0.00005       5.03265
   378    O    9  py     Val( 2p)     1.50390      -0.36907
   379    O    9  py     Ryd( 4p)     0.00102       1.03421
   380    O    9  py     Ryd( 3p)     0.00012       0.47636
   381    O    9  py     Ryd( 5p)     0.00005       5.32439
   382    O    9  pz     Val( 2p)     1.84765      -0.40909
   383    O    9  pz     Ryd( 4p)     0.00122       0.75305
   384    O    9  pz     Ryd( 3p)     0.00002       0.52255
   385    O    9  pz     Ryd( 5p)     0.00001       4.14456
   386    O    9  dxy    Ryd( 3d)     0.00285       1.63372
   387    O    9  dxy    Ryd( 4d)     0.00008       2.19626
   388    O    9  dxy    Ryd( 5d)     0.00006       6.75774
   389    O    9  dxz    Ryd( 3d)     0.00272       1.09197
   390    O    9  dxz    Ryd( 4d)     0.00004       1.90001
   391    O    9  dxz    Ryd( 5d)     0.00001       6.48209
   392    O    9  dyz    Ryd( 3d)     0.00245       1.35266
   393    O    9  dyz    Ryd( 4d)     0.00005       1.75506
   394    O    9  dyz    Ryd( 5d)     0.00004       6.53628
   395    O    9  dx2y2  Ryd( 3d)     0.00718       2.09382
   396    O    9  dx2y2  Ryd( 4d)     0.00017       2.44787
   397    O    9  dx2y2  Ryd( 5d)     0.00004       6.92931
   398    O    9  dz2    Ryd( 3d)     0.00300       1.51058
   399    O    9  dz2    Ryd( 4d)     0.00015       2.43218
   400    O    9  dz2    Ryd( 5d)     0.00001       6.74410
   401    O    9  f(0)   Ryd( 4f)     0.00054       2.77617
   402    O    9  f(0)   Ryd( 5f)     0.00001       5.94192
   403    O    9  f(C1)  Ryd( 4f)     0.00017       3.16910
   404    O    9  f(C1)  Ryd( 5f)     0.00001       6.21354
   405    O    9  f(S1)  Ryd( 4f)     0.00024       3.52489
   406    O    9  f(S1)  Ryd( 5f)     0.00001       6.13970
   407    O    9  f(C2)  Ryd( 4f)     0.00004       2.91204
   408    O    9  f(C2)  Ryd( 5f)     0.00001       5.98693
   409    O    9  f(S2)  Ryd( 4f)     0.00010       2.77383
   410    O    9  f(S2)  Ryd( 5f)     0.00001       6.08648
   411    O    9  f(C3)  Ryd( 4f)     0.00006       3.70561
   412    O    9  f(C3)  Ryd( 5f)     0.00002       6.43837
   413    O    9  f(S3)  Ryd( 4f)     0.00010       4.53472
   414    O    9  f(S3)  Ryd( 5f)     0.00005       6.56946
 
   415    O   10  S      Cor( 1S)     1.99975     -19.46477
   416    O   10  S      Val( 2S)     1.58745      -0.95769
   417    O   10  S      Ryd( 4S)     0.00222       2.37792
   418    O   10  S      Ryd( 3S)     0.00022       1.86161
   419    O   10  S      Ryd( 5S)     0.00002      10.87340
   420    O   10  px     Val( 2p)     1.58560      -0.37185
   421    O   10  px     Ryd( 3p)     0.00271       1.33311
   422    O   10  px     Ryd( 4p)     0.00009       1.42973
   423    O   10  px     Ryd( 5p)     0.00003       4.65037
   424    O   10  py     Val( 2p)     1.46356      -0.35055
   425    O   10  py     Ryd( 4p)     0.00141       1.70562
   426    O   10  py     Ryd( 3p)     0.00020       1.64404
   427    O   10  py     Ryd( 5p)     0.00006       4.50528
   428    O   10  pz     Val( 2p)     1.86287      -0.39703
   429    O   10  pz     Ryd( 3p)     0.00359       0.97029
   430    O   10  pz     Ryd( 4p)     0.00004       1.37143
   431    O   10  pz     Ryd( 5p)     0.00001       3.56960
   432    O   10  dxy    Ryd( 3d)     0.00255       1.94213
   433    O   10  dxy    Ryd( 4d)     0.00022       2.95307
   434    O   10  dxy    Ryd( 5d)     0.00005       6.55583
   435    O   10  dxz    Ryd( 3d)     0.00183       1.37960
   436    O   10  dxz    Ryd( 4d)     0.00008       2.36208
   437    O   10  dxz    Ryd( 5d)     0.00005       6.13013
   438    O   10  dyz    Ryd( 3d)     0.00142       1.46715
   439    O   10  dyz    Ryd( 4d)     0.00025       2.38312
   440    O   10  dyz    Ryd( 5d)     0.00001       6.26653
   441    O   10  dx2y2  Ryd( 3d)     0.00422       2.50756
   442    O   10  dx2y2  Ryd( 4d)     0.00015       3.22351
   443    O   10  dx2y2  Ryd( 5d)     0.00006       6.62137
   444    O   10  dz2    Ryd( 3d)     0.00267       1.68895
   445    O   10  dz2    Ryd( 4d)     0.00011       2.64163
   446    O   10  dz2    Ryd( 5d)     0.00002       6.47882
   447    O   10  f(0)   Ryd( 4f)     0.00047       2.79635
   448    O   10  f(0)   Ryd( 5f)     0.00002       6.17617
   449    O   10  f(C1)  Ryd( 4f)     0.00010       3.88213
   450    O   10  f(C1)  Ryd( 5f)     0.00002       6.39644
   451    O   10  f(S1)  Ryd( 4f)     0.00017       3.84497
   452    O   10  f(S1)  Ryd( 5f)     0.00003       6.45014
   453    O   10  f(C2)  Ryd( 4f)     0.00006       2.92592
   454    O   10  f(C2)  Ryd( 5f)     0.00002       6.35193
   455    O   10  f(S2)  Ryd( 4f)     0.00009       2.86652
   456    O   10  f(S2)  Ryd( 5f)     0.00002       6.40075
   457    O   10  f(C3)  Ryd( 4f)     0.00006       3.68261
   458    O   10  f(C3)  Ryd( 5f)     0.00007       6.63834
   459    O   10  f(S3)  Ryd( 4f)     0.00010       5.09781
   460    O   10  f(S3)  Ryd( 5f)     0.00007       6.78762
 
   461    C   11  S      Cor( 1S)     1.99943     -10.48320
   462    C   11  S      Val( 2S)     1.09316      -0.32902
   463    C   11  S      Ryd( 3S)     0.00179       1.03748
   464    C   11  S      Ryd( 5S)     0.00018       4.53571
   465    C   11  S      Ryd( 4S)     0.00006       2.71082
   466    C   11  px     Val( 2p)     1.19713      -0.14355
   467    C   11  px     Ryd( 4p)     0.00176       1.17665
   468    C   11  px     Ryd( 5p)     0.00014       2.37362
   469    C   11  px     Ryd( 3p)     0.00006       0.96435
   470    C   11  py     Val( 2p)     0.73927      -0.07404
   471    C   11  py     Ryd( 4p)     0.00365       0.98918
   472    C   11  py     Ryd( 5p)     0.00018       2.09779
   473    C   11  py     Ryd( 3p)     0.00006       0.59871
   474    C   11  pz     Val( 2p)     1.18072      -0.13732
   475    C   11  pz     Ryd( 4p)     0.00029       1.05279
   476    C   11  pz     Ryd( 5p)     0.00021       1.96214
   477    C   11  pz     Ryd( 3p)     0.00001       0.57481
   478    C   11  dxy    Ryd( 4d)     0.00060       3.23696
   479    C   11  dxy    Ryd( 3d)     0.00003       1.25069
   480    C   11  dxy    Ryd( 5d)     0.00002       3.52827
   481    C   11  dxz    Ryd( 5d)     0.00048       3.33711
   482    C   11  dxz    Ryd( 3d)     0.00016       1.29926
   483    C   11  dxz    Ryd( 4d)     0.00004       3.14785
   484    C   11  dyz    Ryd( 5d)     0.00136       3.19634
   485    C   11  dyz    Ryd( 3d)     0.00017       1.14209
   486    C   11  dyz    Ryd( 4d)     0.00002       3.15874
   487    C   11  dx2y2  Ryd( 5d)     0.00070       3.95957
   488    C   11  dx2y2  Ryd( 3d)     0.00013       1.26546
   489    C   11  dx2y2  Ryd( 4d)     0.00003       3.43931
   490    C   11  dz2    Ryd( 5d)     0.00063       3.59585
   491    C   11  dz2    Ryd( 3d)     0.00013       1.23828
   492    C   11  dz2    Ryd( 4d)     0.00001       3.37514
   493    C   11  f(0)   Ryd( 4f)     0.00003       2.18439
   494    C   11  f(0)   Ryd( 5f)     0.00001       3.55492
   495    C   11  f(C1)  Ryd( 4f)     0.00010       2.81419
   496    C   11  f(C1)  Ryd( 5f)     0.00007       3.72988
   497    C   11  f(S1)  Ryd( 4f)     0.00015       2.92695
   498    C   11  f(S1)  Ryd( 5f)     0.00007       3.78092
   499    C   11  f(C2)  Ryd( 4f)     0.00007       2.29375
   500    C   11  f(C2)  Ryd( 5f)     0.00003       3.51057
   501    C   11  f(S2)  Ryd( 4f)     0.00014       2.54641
   502    C   11  f(S2)  Ryd( 5f)     0.00000       3.55886
   503    C   11  f(C3)  Ryd( 4f)     0.00011       2.56363
   504    C   11  f(C3)  Ryd( 5f)     0.00005       3.61053
   505    C   11  f(S3)  Ryd( 4f)     0.00006       2.75957
   506    C   11  f(S3)  Ryd( 5f)     0.00006       3.70718
 
   507    H   12  S      Val( 1S)     0.76108       0.05622
   508    H   12  S      Ryd( 4S)     0.00041       1.96743
   509    H   12  S      Ryd( 2S)     0.00014       0.73912
   510    H   12  S      Ryd( 3S)     0.00004       1.63131
   511    H   12  px     Ryd( 2p)     0.00069       0.96532
   512    H   12  px     Ryd( 3p)     0.00020       4.17344
   513    H   12  px     Ryd( 4p)     0.00005       4.22185
   514    H   12  py     Ryd( 2p)     0.00055       0.92956
   515    H   12  py     Ryd( 4p)     0.00007       4.18376
   516    H   12  py     Ryd( 3p)     0.00010       3.39856
   517    H   12  pz     Ryd( 2p)     0.00029       0.61860
   518    H   12  pz     Ryd( 4p)     0.00002       3.95271
   519    H   12  pz     Ryd( 3p)     0.00007       2.10671
   520    H   12  dxy    Ryd( 3d)     0.00008       2.34427
   521    H   12  dxy    Ryd( 4d)     0.00004       4.49531
   522    H   12  dxz    Ryd( 3d)     0.00002       1.69992
   523    H   12  dxz    Ryd( 4d)     0.00001       3.91841
   524    H   12  dyz    Ryd( 3d)     0.00003       1.63292
   525    H   12  dyz    Ryd( 4d)     0.00002       3.73017
   526    H   12  dx2y2  Ryd( 3d)     0.00005       2.05824
   527    H   12  dx2y2  Ryd( 4d)     0.00002       4.50649
   528    H   12  dz2    Ryd( 3d)     0.00004       2.21343
   529    H   12  dz2    Ryd( 4d)     0.00002       4.21359
 
   530    H   13  S      Val( 1S)     0.78114       0.03833
   531    H   13  S      Ryd( 4S)     0.00034       1.96935
   532    H   13  S      Ryd( 2S)     0.00016       0.80614
   533    H   13  S      Ryd( 3S)     0.00002       1.36903
   534    H   13  px     Ryd( 2p)     0.00024       1.14691
   535    H   13  px     Ryd( 4p)     0.00006       3.81160
   536    H   13  px     Ryd( 3p)     0.00008       2.26576
   537    H   13  py     Ryd( 2p)     0.00095       1.13049
   538    H   13  py     Ryd( 4p)     0.00010       5.00501
   539    H   13  py     Ryd( 3p)     0.00003       3.41677
   540    H   13  pz     Ryd( 2p)     0.00022       0.91815
   541    H   13  pz     Ryd( 4p)     0.00008       3.41736
   542    H   13  pz     Ryd( 3p)     0.00002       1.87786
   543    H   13  dxy    Ryd( 3d)     0.00001       1.95148
   544    H   13  dxy    Ryd( 4d)     0.00002       4.53191
   545    H   13  dxz    Ryd( 3d)     0.00001       1.58036
   546    H   13  dxz    Ryd( 4d)     0.00000       3.52124
   547    H   13  dyz    Ryd( 3d)     0.00001       1.75714
   548    H   13  dyz    Ryd( 4d)     0.00001       4.00024
   549    H   13  dx2y2  Ryd( 3d)     0.00014       2.14630
   550    H   13  dx2y2  Ryd( 4d)     0.00003       4.39539
   551    H   13  dz2    Ryd( 3d)     0.00002       1.92184
   552    H   13  dz2    Ryd( 4d)     0.00002       3.81935
 
   553    H   14  S      Val( 1S)     0.77608       0.03470
   554    H   14  S      Ryd( 4S)     0.00041       2.04329
   555    H   14  S      Ryd( 2S)     0.00011       0.71938
   556    H   14  S      Ryd( 3S)     0.00002       1.53932
   557    H   14  px     Ryd( 2p)     0.00183       0.91389
   558    H   14  px     Ryd( 3p)     0.00018       4.16750
   559    H   14  px     Ryd( 4p)     0.00004       4.20982
   560    H   14  py     Ryd( 2p)     0.00054       0.87491
   561    H   14  py     Ryd( 4p)     0.00007       4.17177
   562    H   14  py     Ryd( 3p)     0.00006       3.32409
   563    H   14  pz     Ryd( 2p)     0.00039       0.59801
   564    H   14  pz     Ryd( 4p)     0.00002       3.94757
   565    H   14  pz     Ryd( 3p)     0.00003       2.07912
   566    H   14  dxy    Ryd( 3d)     0.00010       2.28449
   567    H   14  dxy    Ryd( 4d)     0.00003       4.45445
   568    H   14  dxz    Ryd( 3d)     0.00001       1.73502
   569    H   14  dxz    Ryd( 4d)     0.00002       3.83459
   570    H   14  dyz    Ryd( 3d)     0.00001       1.62843
   571    H   14  dyz    Ryd( 4d)     0.00001       3.68578
   572    H   14  dx2y2  Ryd( 3d)     0.00004       2.03072
   573    H   14  dx2y2  Ryd( 4d)     0.00003       4.43106
   574    H   14  dz2    Ryd( 3d)     0.00003       2.17483
   575    H   14  dz2    Ryd( 4d)     0.00001       4.16694
 
   576    H   15  S      Val( 1S)     0.76470       0.03815
   577    H   15  S      Ryd( 4S)     0.00049       1.90915
   578    H   15  S      Ryd( 2S)     0.00013       0.77564
   579    H   15  S      Ryd( 3S)     0.00006       1.89234
   580    H   15  px     Ryd( 2p)     0.00087       1.27349
   581    H   15  px     Ryd( 4p)     0.00006       4.24410
   582    H   15  px     Ryd( 3p)     0.00006       2.95247
   583    H   15  py     Ryd( 2p)     0.00078       0.92265
   584    H   15  py     Ryd( 3p)     0.00022       4.29150
   585    H   15  py     Ryd( 4p)     0.00005       5.06414
   586    H   15  pz     Ryd( 2p)     0.00059       0.55173
   587    H   15  pz     Ryd( 4p)     0.00001       4.10144
[...]
 00827155,0.00174520,0.00505775,-0.00755651,-0.00336706,-0.00763891,0.0
 0820530,0.00834448,0.01433932,0.03162070,-0.07603780,-0.16618226,-0.06
 636476,0.18710468,-0.24361652,-0.06233225,0.05994118,0.04921794,-0.065
 33416,-0.00603266,-0.06446388,-0.01050166,0.01944297,0.01949512,0.0916
 7355,-0.01476093,-0.28869151,0.02975625,0.06590107,0.67878343,-0.12638
 316,-0.19748949,0.05173223,-0.00953830,-0.04693831,0.00845118,-0.01363
 099,-0.00509812,0.00426127,0.03468405,-0.01094554,-0.00914390,0.091762
 74,-0.14166612,-0.01934507,0.00366847,0.64806093,0.06656430,0.03237067
 ,-0.09010936,-0.01180252,0.02531738,0.00786158,0.01976736,0.00331563,-
 0.01005050,-0.00886690,-0.02636932,0.00743284,0.05948855,-0.00060281,-
 0.07842379,-0.16071614,-0.05278139,0.20239809,0.01585487,-0.01680047,-
 0.00241217,-0.00220270,-0.00800521,0.00388493,-0.00473203,-0.00055768,
 0.00111173,-0.00426638,0.00295218,0.00342777,-0.00161316,0.02901576,-0
 .00244445,-0.09690080,0.00918333,0.00299191,0.87864852,-0.00798259,-0.
 03152432,0.00589312,-0.00468005,0.00185913,0.00204076,-0.00182554,0.00
 184051,0.00023266,0.00683652,0.00529404,-0.00177805,0.01618013,-0.0114
 7925,-0.00368055,0.02119179,-0.20261716,0.00587095,-0.17666761,0.69761
 923,-0.00332318,0.00855823,0.00224906,0.00354101,0.00304569,0.00652625
 ,0.00124302,-0.00015025,-0.00160504,0.00302591,-0.00060426,0.00723091,
 -0.00111823,-0.00756077,0.00134466,0.00174961,0.00950643,-0.08537581,-
 0.18169758,0.00368583,0.27160815,-0.00544336,-0.00552653,0.00229597,0.
 00037962,0.00162778,-0.00050485,0.00007601,-0.00001546,0.00002684,0.00
 089073,0.00157516,-0.00087623,0.00392522,0.00129917,-0.00057547,-0.017
 34869,0.03001488,0.00859588,-0.59890571,0.24737183,0.13123228,0.717222
 04,0.00287278,-0.00094048,-0.00074423,0.00071043,0.00151998,-0.0004477
 4,0.00215749,-0.00065390,-0.00056800,-0.00121579,-0.00188185,0.0004100
 7,-0.00490468,-0.00605546,0.00236380,0.04685701,-0.02359972,-0.0095122
 7,0.23856691,-0.23776059,-0.05579369,-0.27212228,0.23131756,0.00142692
 ,0.00179456,-0.00035629,-0.00041001,-0.00072500,-0.00053496,-0.0001978
 3,0.00008874,0.00021017,-0.00058775,-0.00043354,-0.00124712,0.00006637
 ,0.00048899,0.00239550,0.00685460,-0.00442370,0.01974777,0.13214170,-0
 .05845359,-0.11395529,-0.17844159,0.06181087,0.08127160,0.00093411,0.0
 0164893,-0.00004632,0.00112688,0.00025891,-0.00051613,0.00059386,-0.00
 003691,-0.00014245,-0.00072236,-0.00089070,0.00006561,-0.00312050,0.00
 165188,0.00094598,0.00409476,-0.00702144,0.00311562,-0.19642296,-0.050
 53339,0.04473508,-0.10087387,-0.02328076,0.04191760,0.38640511,0.00649
 190,-0.00432511,-0.00137608,-0.00092170,-0.00233195,0.00046874,-0.0005
 0277,-0.00079864,0.00024594,-0.00334079,0.00156333,0.00076452,-0.00042
 189,-0.00525905,0.00073083,-0.03505846,-0.03511971,0.01547267,-0.07633
 442,-0.18669125,0.03559000,-0.01312370,0.03695066,0.00323000,-0.047594
 66,0.65543842,-0.00054748,0.00008811,0.00150102,-0.00039394,0.00011205
 ,-0.00038446,-0.00009435,0.00010511,0.00012752,0.00031909,0.00002387,-
 0.00090893,0.00116076,0.00010414,0.00021316,0.00601535,0.00699495,0.00
 945504,0.04740614,0.02779126,-0.08294186,0.04086590,0.00630032,0.01682
 178,-0.10029545,-0.04945642,0.07377479,-0.00438207,0.00779469,0.000184
 05,0.00650681,-0.00831053,0.00025979,-0.06156186,0.01216008,0.01951989
 ,-0.25010601,0.09853049,0.05146091,-0.01592612,0.02059492,0.00559327,-
 0.00068454,-0.00077464,0.00234881,-0.00199401,-0.00711953,0.00143321,-
 0.00050176,0.00349674,-0.00030141,0.00209175,0.00343939,-0.00095698,0.
 54492607,0.00340796,0.00192221,-0.00134338,-0.00206798,-0.00679619,0.0
 0179634,-0.02074937,0.02052597,0.00489167,0.06177658,-0.15071533,-0.00
 787619,0.04641258,-0.02090384,-0.01087583,-0.00710455,-0.00453409,0.00
 332109,0.00133933,0.00076331,-0.00045160,0.00058016,-0.00133166,-0.000
 06883,-0.00004531,-0.00047759,0.00007379,0.01146911,0.33854460,0.00063
 716,-0.00267192,-0.00102299,-0.00038755,0.00368420,0.00426222,0.022923
 14,-0.00505453,0.00076411,0.05524921,-0.01898503,-0.06091847,0.0029193
 6,-0.00306821,0.00905489,0.00300570,0.00140896,0.00576601,0.00055808,0
 .00210514,-0.00007572,0.00000037,-0.00095051,-0.00020396,-0.00059635,-
 0.00097945,0.00038469,-0.14415545,-0.03099624,0.11857475,0.00147735,-0
 .00042341,-0.00033726,-0.00107049,-0.00125029,0.00092278,0.00161625,0.
 00406648,-0.00007942,-0.05201227,-0.01480427,0.01588828,0.00301891,-0.
 00055033,-0.00126440,-0.00112463,-0.00227471,0.00075405,0.00102247,0.0
 0260715,-0.00060184,0.00012493,-0.00127379,0.00010117,-0.00085950,-0.0
 0130920,0.00034203,-0.16351870,-0.05708905,0.03690225,0.55514923,0.001
 32395,0.00013007,-0.00039126,0.00053163,0.00011479,-0.00001218,0.00447
 246,-0.00183470,-0.00087897,0.00580234,0.01512526,-0.00377732,0.008456
 21,-0.00111699,-0.00257924,-0.00085042,-0.00080014,0.00040109,0.001014
 72,0.00222995,-0.00054530,-0.00011542,-0.00095010,0.00013562,-0.000894
 34,-0.00117640,0.00037382,-0.08924507,-0.15875370,0.03706688,-0.071801
 44,0.56868953,-0.00051742,0.00013773,0.00035914,0.00073903,0.00052622,
 0.00127547,-0.00011921,-0.00075625,0.00286235,0.01376393,0.00245088,-0
 .00889650,-0.00219352,0.00014147,-0.00070317,0.00060605,0.00083108,0.0
 0032399,-0.00043694,-0.00102621,0.00016158,-0.00001861,0.00048553,-0.0
 0002078,0.00029891,0.00049895,-0.00031813,0.04021525,0.02734869,-0.075
 87384,0.01395862,0.02253119,0.57028184,-0.29129892,0.09707147,0.066482
 79,0.00142927,-0.00073570,0.00076374,0.00195166,0.00036677,0.00135598,
 0.00007773,-0.00033393,-0.00010828,-0.00068080,-0.00357747,0.00233696,
 -0.01688636,0.00958484,0.00527620,-0.00289657,0.00159399,-0.00059736,0
 .00199791,0.00111711,-0.00078013,0.00060253,-0.00003899,-0.00014857,0.
 00033121,-0.00003912,-0.00024186,-0.00016161,-0.00008837,-0.00003676,0
 .30606329,0.09909798,-0.09870667,-0.02369546,0.02712942,-0.00515805,-0
 .00728444,0.00035213,-0.00520760,0.00111059,-0.00050241,-0.00164794,0.
 00028144,-0.00297087,-0.00241337,0.00175005,-0.01695337,0.01225559,0.0
 0425530,-0.00248087,0.00048306,0.00025258,0.00104883,-0.00173611,-0.00
 015827,0.00130680,0.00062803,-0.00044994,-0.00012346,0.00037161,-0.000
 05096,-0.00000762,0.00003100,-0.00003332,-0.10547006,0.09974350,0.0662
 7303,-0.02308304,-0.05580548,-0.00211742,0.00113886,0.00422660,0.00135
 747,0.00110625,0.00603809,-0.00009103,0.00023047,-0.00039114,0.0022743
 3,0.00193327,0.00493917,0.00802026,-0.00376657,0.00181192,-0.00017592,
 -0.00097945,-0.00417294,-0.00077316,-0.00017891,0.00005129,-0.00028772
 ,-0.00004302,0.00018921,-0.00023301,-0.00007640,-0.00040382,-0.0000450
 1,-0.00000891,-0.00029891,-0.07354940,0.02432675,0.04639028,0.00840070
 ,0.00501016,-0.00176782,-0.20703259,-0.12919772,0.06374647,-0.01575596
 ,-0.01940949,0.00808122,-0.00213820,0.00330063,0.00269157,-0.00048957,
 0.00096787,-0.00014592,0.00177300,0.00187694,0.00130913,0.00036552,0.0
 0034704,-0.00006018,0.00002089,-0.00013269,0.00002300,-0.00003590,0.00
 010350,-0.00004705,-0.00145482,-0.00112742,0.00058317,-0.00003748,0.00
 042277,-0.00010429,0.00013141,-0.00063258,-0.00114804,0.21579955,-0.02
 387212,-0.01363017,0.00906654,-0.12949124,-0.17284958,0.05284419,0.009
 74115,0.01099431,-0.00363283,0.00300897,0.00012654,-0.00010632,0.00109
 886,-0.00039051,-0.00035805,0.00237313,-0.00538496,0.00053688,-0.00164
 361,0.00048073,0.00047654,0.00040159,-0.00027422,-0.00008766,-0.000021
 15,-0.00088907,0.00008224,0.00032312,0.00059068,-0.00014936,0.00016386
 ,-0.00010103,-0.00006380,0.00022216,0.00109764,-0.00058213,0.13857188,
 0.17966634,0.00121861,0.00033587,0.00386312,0.06377684,0.05275547,-0.0
 6507509,0.00506682,0.00517897,0.00227149,0.00272169,-0.00019439,0.0070
 9230,-0.00015944,-0.00031856,-0.00055999,0.00125781,0.00068697,0.00629
 447,0.00014568,-0.00012516,0.00025403,-0.00003226,0.00007381,0.0000537
 0,-0.00003415,0.00004450,-0.00015038,0.00043338,0.00028896,-0.00007121
 ,-0.00007761,-0.00014190,-0.00020040,-0.00123640,-0.00032375,-0.003475
 61,-0.07143441,-0.05768559,0.05444012,-0.00420077,0.00176243,0.0033488
 4,0.00044016,0.02797015,-0.00184154,-0.06738338,0.05460596,0.00317795,
 0.00883793,-0.02248443,0.00159306,-0.00282507,-0.00270709,0.00266286,-
 0.00144292,-0.00030722,0.00034995,-0.00041737,0.00000218,-0.00013143,0
 .00024861,0.00007977,-0.00006853,0.00017778,0.00000678,-0.00003382,0.0
 0131263,0.00071335,-0.00147404,-0.00016703,-0.00001392,-0.00012571,0.0
 0000963,0.00123258,-0.00013498,0.00063399,-0.00068130,-0.00142965,0.06
 431641,0.00193431,0.00166990,0.00001615,-0.00008481,-0.00500586,0.0009
 4809,0.05266347,-0.33461304,0.01473205,0.00731335,-0.01594438,0.000101
 55,-0.00319043,-0.00138295,0.00163040,-0.00077375,0.00095596,0.0000947
 0,-0.00006002,-0.00025025,-0.00004402,-0.00001009,-0.00002594,0.000010
 82,0.00006212,-0.00007880,-0.00000357,0.00115542,0.00129716,-0.0008266
 0,-0.00034578,0.00014847,0.00002831,-0.00016089,-0.00025465,0.00007341
 ,0.00012427,0.00058170,-0.00054531,-0.05921676,0.35341779,0.00333100,0
 .00006800,0.00646687,0.00105930,-0.00753207,0.00437437,0.00337869,0.01
 414489,-0.04067401,-0.00148766,0.00910867,0.00592476,0.00271277,0.0014
 8415,0.00408464,0.00039815,-0.00004627,-0.00050587,-0.00012501,-0.0000
 6288,-0.00080721,-0.00005924,-0.00001635,0.00006877,-0.00003952,0.0000
 1316,0.00007884,-0.00151970,-0.00069296,-0.00278918,-0.00009142,-0.000
 07185,-0.00055220,0.00000911,-0.00034780,0.00001792,-0.00151294,-0.000
 30182,-0.00384013,-0.00574103,-0.01605250,0.02846216,-0.00317970,0.003
 74256,0.00246088,-0.00006930,0.00067718,-0.00033528,0.00079744,0.00198
 136,0.00140916,0.00949613,0.00302386,-0.00170488,-0.20321294,-0.133865
 19,0.06472815,-0.01581253,-0.01918750,0.00735298,-0.00214722,-0.002552
 16,-0.00031758,0.00100696,0.00030962,-0.00015260,0.00118823,0.00023786
 ,-0.00032981,-0.00170432,-0.00158224,-0.00025236,-0.00237090,0.0027246
 5,0.00029536,-0.00065290,-0.00101364,0.00057100,-0.00006766,-0.0001186
 3,-0.00022499,0.00028191,0.00041712,-0.00024413,0.21850880,0.00342922,
 0.00039316,-0.00043179,0.00130183,-0.00098839,-0.00038923,0.00195971,-
 0.00512601,0.00057223,-0.02274912,-0.01162941,0.00858493,-0.13491859,-
 0.18066325,0.05586000,0.00679689,0.01112087,-0.00300322,0.00059799,0.0
 0148828,-0.00075572,-0.00075765,0.00004097,0.00028764,0.00132590,-0.00
 469552,0.00010340,-0.00021888,0.00197929,-0.00045679,-0.00029703,-0.00
 104110,0.00014971,0.00054613,0.00057983,-0.00013301,-0.00008943,0.0000
 0003,-0.00006113,-0.00113585,-0.00065799,0.00037174,0.14287165,0.18856
 902,0.00249330,-0.00052651,0.00554205,-0.00039982,-0.00020049,-0.00080
 516,0.00141131,0.00056555,0.00565177,0.00095974,0.00079416,0.00451861,
 0.06483757,0.05554073,-0.06022434,0.00466554,0.00485175,0.00003583,-0.
 00064342,0.00019640,-0.00389705,-0.00004231,-0.00003486,0.00062440,-0.
 00044224,0.00043229,0.00026770,-0.00039339,-0.00004453,-0.00295580,0.0
 0060876,-0.00076300,-0.00056412,0.00040976,0.00033842,0.00073066,-0.00
 022800,-0.00005230,-0.00077818,-0.00008361,-0.00009771,-0.00034784,-0.
 07339389,-0.06014630,0.05299303,0.00067736,-0.00093174,0.00003658,-0.0
 0032018,-0.00032091,0.00002554,-0.00023799,0.00013881,0.00006354,0.000
 59987,0.00004609,-0.00013476,-0.00049395,0.00059103,0.00002557,-0.0044
 8813,-0.00196704,0.00289891,0.01688146,-0.04412520,0.00073154,-0.00276
 501,0.00647100,-0.00158014,-0.09540381,0.16814426,0.00679586,-0.000354
 06,0.00001843,0.00009651,0.00013170,0.00011574,-0.00002770,-0.00003543
 ,-0.00006738,0.00007490,0.00002348,-0.00010125,-0.00001756,0.00002300,
 0.00002057,-0.00001747,0.00051622,0.00009022,-0.00021215,0.08526010,0.
 00052612,-0.00077560,-0.00002917,-0.00052123,-0.00000471,0.00012229,-0
 .00005145,0.00015428,0.00000164,0.00056034,-0.00007363,-0.00014421,-0.
 00038058,0.00099537,-0.00000932,-0.00367074,0.00110695,0.00145356,0.00
 015265,-0.04121791,0.00465214,0.00778532,0.00507714,-0.00347618,0.1239
 1838,-0.45299729,0.00781653,-0.00045416,0.00011910,0.00012203,0.000151
 30,0.00008521,-0.00004630,-0.00012444,-0.00010344,0.00006791,0.0000443
 1,-0.00005602,-0.00001477,0.00000797,0.00001604,-0.00000694,0.00017898
 ,0.00001801,-0.00007199,-0.12811268,0.48768876,-0.00011422,0.00041159,
 0.00047167,0.00004637,0.00006175,-0.00036577,0.00008319,-0.00005591,0.
 00000034,-0.00018795,0.00001128,0.00022556,0.00012611,-0.00030313,-0.0
 0021394,0.00307519,0.00093773,0.00340145,-0.00384966,0.01803926,0.0034
 9698,-0.00171573,-0.00307922,-0.00493969,0.01137122,-0.00555369,-0.018
 24306,0.00014539,-0.00002085,-0.00007025,-0.00003140,-0.00003555,0.000
 09280,0.00008080,0.00005064,0.00015961,-0.00003262,0.00002925,-0.00006
 242,-0.00001617,-0.00001075,-0.00002178,-0.00022137,-0.00004515,-0.000
 08318,-0.00875348,-0.01043979,0.01618714,-0.00003965,0.00005708,-0.000
 01038,-0.00010031,-0.00041341,0.00007543,-0.00109849,0.00082238,0.0003
 2184,-0.00001398,-0.00440309,0.00059979,0.00017619,-0.00059898,0.00012
 830,0.00001559,0.00029795,0.00003036,-0.00004853,-0.00036448,0.0000611
 3,-0.00006229,0.00017561,-0.00000188,0.00008558,0.00015960,-0.00003457
 ,-0.03249689,0.01107597,0.00880036,-0.20824160,0.12887911,0.03386582,0
 .00000818,0.00000796,-0.00001471,-0.00011615,0.00004488,0.00001600,-0.
 00000564,-0.00003961,0.00001245,0.00023279,0.00006012,-0.00020867,-0.0
 0001421,-0.00002492,0.00000594,0.23822554,0.00018569,0.00017623,-0.000
 08001,0.00008558,-0.00048509,0.00002517,-0.00110134,0.00061694,0.00029
 482,-0.00271927,-0.00244728,0.00112230,0.00001350,-0.00122399,0.000163
 61,-0.00012017,0.00050837,0.00000644,-0.00024019,0.00002429,0.00007311
 ,0.00010845,-0.00003689,-0.00002984,0.00008308,-0.00003579,-0.00001874
 ,-0.02701918,0.01374082,0.00678502,0.14267440,-0.15971513,-0.03196198,
 0.00003349,0.00004130,-0.00001832,-0.00008329,0.00003786,0.00001629,0.
 00001733,-0.00001947,-0.00000097,0.00059825,0.00060151,-0.00028837,0.0
 0001336,0.00002860,-0.00000731,-0.13747275,0.16668361,-0.00002355,-0.0
 0004084,-0.00004307,0.00002387,0.00017555,-0.00001806,0.00052025,-0.00
 028666,0.00012017,0.00042880,0.00163181,0.00017465,0.00006529,0.000348
 25,0.00033971,0.00007337,-0.00011999,0.00020836,0.00004826,0.00011064,
 0.00000295,0.00000506,-0.00005012,-0.00000475,-0.00002665,-0.00004188,
 0.00003826,0.01273502,-0.00472249,-0.00293912,0.03243995,-0.02779464,-
 0.05893698,-0.00001736,-0.00001058,-0.00003147,0.00002921,-0.00002243,
 -0.00005444,0.00000662,0.00001627,0.00001853,-0.00026414,-0.00012560,-
 0.00034467,0.00000198,0.00000425,-0.00000413,-0.04344252,0.02918773,0.
 05745750,0.00027759,0.00097620,-0.00019696,0.00062228,-0.00086347,-0.0
 0038776,-0.00171728,-0.00034971,-0.00013763,0.00580773,-0.00241576,0.0
 0049192,0.00075201,0.00127475,-0.00034461,-0.00116327,-0.00017881,-0.0
 0018574,0.00000485,-0.00008732,0.00007909,-0.00004614,0.00005183,0.000
 00138,0.00000778,0.00000139,-0.00002447,-0.00184670,-0.02102556,0.0297
 5757,-0.07171662,0.03766931,-0.06416505,0.00001927,0.00002394,0.000101
 88,0.00001188,-0.00000669,0.00005781,0.00010758,0.00009676,0.00012382,
 -0.00100211,0.00053521,0.00170773,0.00000110,0.00000334,-0.00000657,-0
 .00446120,0.00989972,-0.02118165,0.07511965,-0.00029971,0.00008546,0.0
 0014274,0.00008085,0.00006180,-0.00018410,-0.00071270,-0.00008768,0.00
 000791,0.00359417,-0.00107345,-0.00114822,-0.00051935,0.00039782,-0.00
 034448,0.00021096,0.00005978,0.00006629,0.00000995,-0.00025766,-0.0000
 0246,-0.00008865,0.00016812,0.00000503,0.00001811,0.00014019,0.0000008
 1,-0.00767943,-0.01653931,0.02166020,0.03384759,-0.10733486,0.09962700
 ,0.00001063,-0.00000533,-0.00000432,-0.00004061,0.00000113,0.00003374,
 0.00010169,0.00007975,0.00008445,0.00057962,-0.00012944,-0.00088765,-0
 .00001078,-0.00003168,0.00000607,0.00553062,-0.00780610,0.01653642,-0.
 03019907,0.12094249,-0.00002841,-0.00033574,-0.00000473,-0.00036954,0.
 00025172,0.00017055,0.00098783,-0.00004740,-0.00030476,-0.00348303,0.0
 0164717,0.00086547,0.00021316,0.00073914,-0.00021374,0.00010448,-0.000
 44882,0.00010040,0.00035225,0.00022019,-0.00015277,-0.00014733,-0.0000
 5068,0.00006120,-0.00018099,-0.00010924,0.00011654,0.00933666,0.009320
 29,-0.00576528,-0.05834734,0.10059158,-0.23246590,-0.00005751,-0.00003
 952,0.00000145,0.00002159,-0.00000580,-0.00002394,-0.00010424,-0.00008
 913,-0.00001335,0.00018736,-0.00088246,-0.00044959,0.00000127,-0.00001
 408,-0.00001573,0.00066288,-0.00385504,0.00677377,0.05863070,-0.117902
 52,0.24993152,0.00025730,0.00099183,-0.00019315,0.00087064,-0.00080993
 ,0.00009945,-0.00162714,-0.00015630,0.00106763,0.00562851,-0.00317393,
 -0.00305958,0.00049651,0.00062150,-0.00029233,-0.00075606,0.00019061,0
 .00072729,-0.00023024,-0.00019275,0.00001551,0.00005389,0.00006372,-0.
 00001086,0.00013054,0.00006189,0.00000134,-0.01863662,-0.02596285,-0.0
 1432528,-0.06126003,-0.02840391,-0.03599774,-0.00000950,0.00002262,-0.
 00010245,-0.00003209,-0.00001362,-0.00004815,0.00005254,0.00009476,-0.
 00018716,-0.00180890,0.00065169,-0.00104623,-0.00000153,0.00001150,-0.
 00000504,0.00795507,0.01504333,0.01857817,-0.00077839,-0.00443388,-0.0
 0777981,0.06969550,-0.00034240,0.00007850,0.00002591,0.00019561,0.0000
 9041,0.00008123,-0.00069283,-0.00002533,0.00038333,0.00400278,-0.00117
 106,-0.00080810,-0.00035057,0.00026116,0.00051757,0.00017148,0.0001248
 9,-0.00021366,-0.00004271,-0.00028414,0.00006752,-0.00005338,0.0001725
 1,0.00000433,0.00004455,0.00015554,-0.00004174,-0.01801907,-0.01980305
 ,-0.00864283,-0.03208386,-0.15373015,-0.12086891,0.00002237,0.00000160
 ,-0.00000283,-0.00005612,-0.00000140,-0.00000403,0.00004637,0.00006655
 ,-0.00014263,0.00097665,0.00014014,0.00039442,-0.00001253,-0.00002918,
 0.00000378,-0.00379404,-0.01068980,-0.01479570,0.00459395,0.01132897,0
 .01101034,0.04539374,0.17331381,-0.00009183,-0.00028404,0.00002277,-0.
 00011985,0.00023455,-0.00010601,0.00003417,0.00016639,-0.00045700,-0.0
 0044435,0.00038011,0.00114489,-0.00056409,-0.00140148,0.00017773,0.000
 39839,0.00041315,-0.00037243,-0.00028330,-0.00008032,0.00010912,0.0001
 6450,-0.00001781,-0.00004334,0.00015795,0.00006816,-0.00002174,0.00389
 433,0.01012847,0.01428299,-0.04104219,-0.12410006,-0.19652623,0.000058
 32,0.00002829,0.00002319,-0.00000410,0.00001244,0.00002257,0.00004547,
 0.00001784,0.00005471,0.00043613,0.00050072,0.00008589,-0.00000895,0.0
 0001239,-0.00001560,-0.00086756,-0.00141390,-0.00275723,-0.00432146,-0
 .01769689,-0.01861111,0.04255841,0.13303200,0.20298683\\-0.00004892,-0
 .00022548,0.00003752,-0.00005872,0.00015443,0.00000189,0.00005740,0.00
 000856,-0.00001805,-0.00001494,-0.00008042,0.00001602,-0.00002676,0.00
 003499,0.00000336,0.00012609,0.00001405,-0.00004466,-0.00015851,0.0000
 2955,0.00006242,0.00008387,-0.00000922,-0.00003111,0.00002444,0.000055
 77,-0.00001841,-0.00002258,0.00000722,0.00000262,0.00002980,-0.0000251
 0,-0.00000514,0.00001374,0.00005139,-0.00000943,0.00000658,-0.00001208
 ,-0.00000068,0.00000489,-0.00000406,-0.00000095,-0.00000302,0.00000486
 ,0.00000024,0.00001560,-0.00002729,-0.00000198,-0.00002082,-0.00001038
 ,0.00000774,-0.00000535,0.00001576,-0.00000690,-0.00000279,0.00001746,
 0.00000549\\\@
 The archive entry for this job was punched.


 LORD, MAN... WERE YE BUT WHYLES WHERE I AM, 
 THE GENTILES YE WAD NE'ER ENVY 'EM.        
 IT'S TRUE, THEY NEEDNA STARVE OR SWEAT,     
 THRO' WINTER'S CAULD OR SIMMER'S HEAT...  
 THEY'VE NAE SAIR WARK TO CRAZE THEIR BANES, 
 AND FILL AULD AGE WITH GRIPS AN' GRANES...  
                                             
 BUT HUMAN BODIES ARE SIC FOOLS              
 FOR A' THEIR COLLEGES AND SCHOOLS,           
 THAT WHEN NAE REAL ILLS PERPLEX THEM,       
 THEY MAK ENOW THEMSELVES TO VEX THEM,       
 AN' AYE THE LESS THEY HAE TO STURT THEM,    
 IN LIKE PROPORTION LESS WILL HURT THEM....  
                                             
                (ROBERT BURNS 'THE TWA DOGS')
 Job cpu time:       0 days 21 hours 15 minutes 54.5 seconds.
 Elapsed time:       0 days  1 hours  3 minutes 49.5 seconds.
 File lengths (MBytes):  RWF=    588 Int=      0 D2E=      0 Chk=     43 Scr=      1
 Normal termination of Gaussian 16 at Wed Apr  2 13:47:56 2025.
