 Entering Gaussian System, Link 0=g16
 Initial command:
 /usr/local/gaussian16c01/g16/l1.exe "/scr/dhuang/Gau-313079.inp" -scrdir="/scr/dhuang/"
 Entering Link 1 = /usr/local/gaussian16c01/g16/l1.exe PID=    313082.
  
 Copyright (c) 1988-2019, Gaussian, Inc.  All Rights Reserved.
  
 This is part of the Gaussian(R) 16 program.  It is based on
 the Gaussian(R) 09 system (copyright 2009, Gaussian, Inc.),
 the Gaussian(R) 03 system (copyright 2003, Gaussian, Inc.),
 the Gaussian(R) 98 system (copyright 1998, Gaussian, Inc.),
 the Gaussian(R) 94 system (copyright 1995, Gaussian, Inc.),
 the Gaussian 92(TM) system (copyright 1992, Gaussian, Inc.),
 the Gaussian 90(TM) system (copyright 1990, Gaussian, Inc.),
 the Gaussian 88(TM) system (copyright 1988, Gaussian, Inc.),
 the Gaussian 86(TM) system (copyright 1986, Carnegie Mellon
 University), and the Gaussian 82(TM) system (copyright 1983,
 Carnegie Mellon University). Gaussian is a federally registered
 trademark of Gaussian, Inc.
  
 This software contains proprietary and confidential information,
 including trade secrets, belonging to Gaussian, Inc.
  
 This software is provided under written license and may be
 used, copied, transmitted, or stored only in accord with that
 written license.
  
 The following legend is applicable only to US Government
 contracts under FAR:
  
                    RESTRICTED RIGHTS LEGEND
  
 Use, reproduction and disclosure by the US Government is
 subject to restrictions as set forth in subparagraphs (a)
 and (c) of the Commercial Computer Software - Restricted
 Rights clause in FAR 52.227-19.
  
 Gaussian, Inc.
 340 Quinnipiac St., Bldg. 40, Wallingford CT 06492
  
  
 ---------------------------------------------------------------
 Warning -- This program may not be used in any manner that
 competes with the business of Gaussian, Inc. or will provide
 assistance to any competitor of Gaussian, Inc.  The licensee
 of this program is prohibited from giving any competitor of
 Gaussian, Inc. access to this program.  By using this program,
 the user acknowledges that Gaussian, Inc. is engaged in the
 business of creating and licensing software in the field of
 computational chemistry and represents and warrants to the
 licensee that it is not a competitor of Gaussian, Inc. and that
 it will not use this program in any manner prohibited above.
 ---------------------------------------------------------------
  

 Cite this work as:
 Gaussian 16, Revision C.01,
 M. J. Frisch, G. W. Trucks, H. B. Schlegel, G. E. Scuseria, 
 M. A. Robb, J. R. Cheeseman, G. Scalmani, V. Barone, 
 G. A. Petersson, H. Nakatsuji, X. Li, M. Caricato, A. V. Marenich, 
 J. Bloino, B. G. Janesko, R. Gomperts, B. Mennucci, H. P. Hratchian, 
 J. V. Ortiz, A. F. Izmaylov, J. L. Sonnenberg, D. Williams-Young, 
 F. Ding, F. Lipparini, F. Egidi, J. Goings, B. Peng, A. Petrone, 
 T. Henderson, D. Ranasinghe, V. G. Zakrzewski, J. Gao, N. Rega, 
 G. Zheng, W. Liang, M. Hada, M. Ehara, K. Toyota, R. Fukuda, 
 J. Hasegawa, M. Ishida, T. Nakajima, Y. Honda, O. Kitao, H. Nakai, 
 T. Vreven, K. Throssell, J. A. Montgomery, Jr., J. E. Peralta, 
 F. Ogliaro, M. J. Bearpark, J. J. Heyd, E. N. Brothers, K. N. Kudin, 
 V. N. Staroverov, T. A. Keith, R. Kobayashi, J. Normand, 
 K. Raghavachari, A. P. Rendell, J. C. Burant, S. S. Iyengar, 
 J. Tomasi, M. Cossi, J. M. Millam, M. Klene, C. Adamo, R. Cammi, 
 J. W. Ochterski, R. L. Martin, K. Morokuma, O. Farkas, 
 J. B. Foresman, and D. J. Fox, Gaussian, Inc., Wallingford CT, 2019.
 
 ******************************************
 Gaussian 16:  ES64L-G16RevC.01  3-Jul-2019
                 2-Apr-2025 
 ******************************************
 %nprocshared=20
 Will use up to   20 processors via shared memory.
 %mem=10000MW
 %chk=m-SO2Me.chk
 ------------------------------------
 # opt freq m062x/aug-cc-pvtz pop=nbo
 ------------------------------------
 1/18=20,19=15,26=3,38=1/1,3;
 2/9=110,12=2,17=6,18=5,40=1/2;
 3/5=16,6=1,7=10,11=2,25=1,30=1,71=1,74=-55/1,2,3;
 4//1;
 5/5=2,38=5/2;
 6/7=2,8=2,9=2,10=2,28=1,40=1/1,7;
 7//1,2,3,16;
 1/18=20,19=15,26=3/3(2);
 2/9=110/2;
 99//99;
 2/9=110/2;
 3/5=16,6=1,7=10,11=2,25=1,30=1,71=1,74=-55/1,2,3;
 4/5=5,16=3,69=1/1;
 5/5=2,38=5/2;
 7//1,2,3,16;
 1/18=20,19=15,26=3/3(-5);
 2/9=110/2;
 6/7=2,8=2,9=2,10=2,19=2,28=1,40=1/1,7;
 99/9=1/99;
 -------
 m-SO2Me
 -------
 Symbolic Z-matrix:
 Charge =  0 Multiplicity = 1
 C                    -2.1017   -0.3591    1.5043 
 C                    -1.9052   -1.6845    1.5816 
 C                    -0.7108   -2.2111    1.2747 
 C                     0.2952   -1.4104    0.8878 
 C                     0.0906   -0.0834    0.8135 
 C                    -1.1042    0.4592    1.1185 
 C                    -1.2848    1.81      1.0335 
 O                    -2.3378    2.3523    1.2952 
 O                    -0.2935    2.6502    0.6454 
 S                     1.8933   -2.1062    0.4806 
 O                     1.9777   -3.5575    0.3372 
 O                     3.0667   -1.3224    0.8577 
 C                     2.1302   -1.8085   -1.3293 
 H                    -3.1025    0.0213    1.7677 
 H                    -2.7293   -2.3458    1.8992 
 H                    -0.5727   -3.3027    1.346 
 H                     0.9309    0.5552    0.4948 
 H                    -0.6377    3.5575    0.6611 
 H                     3.1025   -2.2269   -1.6761 
 H                     1.3023   -2.2883   -1.8992 
 H                     2.111    -0.7155   -1.5412 
 

 GradGradGradGradGradGradGradGradGradGradGradGradGradGradGradGradGradGrad
 Berny optimization.
 Initialization pass.
                           ----------------------------
                           !    Initial Parameters    !
                           ! (Angstroms and Degrees)  !
 --------------------------                            --------------------------
 ! Name  Definition              Value          Derivative Info.                !
 --------------------------------------------------------------------------------
 ! R1    R(1,2)                  1.3421         estimate D2E/DX2                !
 ! R2    R(1,6)                  1.3466         estimate D2E/DX2                !
 ! R3    R(1,14)                 1.1026         estimate D2E/DX2                !
 ! R4    R(2,3)                  1.3409         estimate D2E/DX2                !
 ! R5    R(2,15)                 1.1033         estimate D2E/DX2                !
 ! R6    R(3,4)                  1.3427         estimate D2E/DX2                !
 ! R7    R(3,16)                 1.1026         estimate D2E/DX2                !
 ! R8    R(4,5)                  1.3447         estimate D2E/DX2                !
 ! R9    R(4,10)                 1.7899         estimate D2E/DX2                !
 ! R10   R(5,6)                  1.3472         estimate D2E/DX2                !
 ! R11   R(5,17)                 1.1025         estimate D2E/DX2                !
 ! R12   R(6,7)                  1.3655         estimate D2E/DX2                !
 ! R13   R(7,8)                  1.213          estimate D2E/DX2                !
 ! R14   R(7,9)                  1.3562         estimate D2E/DX2                !
 ! R15   R(9,18)                 0.9705         estimate D2E/DX2                !
 ! R16   R(10,11)                1.4608         estimate D2E/DX2                !
 ! R17   R(10,12)                1.4606         estimate D2E/DX2                !
 ! R18   R(10,13)                1.8495         estimate D2E/DX2                !
 ! R19   R(13,19)                1.1139         estimate D2E/DX2                !
 ! R20   R(13,20)                1.1137         estimate D2E/DX2                !
 ! R21   R(13,21)                1.1135         estimate D2E/DX2                !
 ! A1    A(2,1,6)              120.5399         estimate D2E/DX2                !
 ! A2    A(2,1,14)             117.3773         estimate D2E/DX2                !
 ! A3    A(6,1,14)             122.0828         estimate D2E/DX2                !
 ! A4    A(1,2,3)              120.3348         estimate D2E/DX2                !
 ! A5    A(1,2,15)             119.9422         estimate D2E/DX2                !
 ! A6    A(3,2,15)             119.7229         estimate D2E/DX2                !
 ! A7    A(2,3,4)              119.9421         estimate D2E/DX2                !
 ! A8    A(2,3,16)             119.0488         estimate D2E/DX2                !
 ! A9    A(4,3,16)             121.0091         estimate D2E/DX2                !
 ! A10   A(3,4,5)              119.3666         estimate D2E/DX2                !
 ! A11   A(3,4,10)             120.1772         estimate D2E/DX2                !
 ! A12   A(5,4,10)             120.4559         estimate D2E/DX2                !
 ! A13   A(4,5,6)              121.3237         estimate D2E/DX2                !
 ! A14   A(4,5,17)             118.1383         estimate D2E/DX2                !
 ! A15   A(6,5,17)             120.538          estimate D2E/DX2                !
 ! A16   A(1,6,5)              118.4928         estimate D2E/DX2                !
 ! A17   A(1,6,7)              121.3989         estimate D2E/DX2                !
 ! A18   A(5,6,7)              120.1084         estimate D2E/DX2                !
 ! A19   A(6,7,8)              122.9327         estimate D2E/DX2                !
 ! A20   A(6,7,9)              122.2771         estimate D2E/DX2                !
 ! A21   A(8,7,9)              114.79           estimate D2E/DX2                !
 ! A22   A(7,9,18)             108.3796         estimate D2E/DX2                !
 ! A23   A(4,10,11)            117.3945         estimate D2E/DX2                !
 ! A24   A(4,10,12)            116.7387         estimate D2E/DX2                !
 ! A25   A(4,10,13)            105.9274         estimate D2E/DX2                !
 ! A26   A(11,10,12)           120.801          estimate D2E/DX2                !
 ! A27   A(11,10,13)            93.2362         estimate D2E/DX2                !
 ! A28   A(12,10,13)            93.6335         estimate D2E/DX2                !
 ! A29   A(10,13,19)           110.8571         estimate D2E/DX2                !
 ! A30   A(10,13,20)           109.6452         estimate D2E/DX2                !
 ! A31   A(10,13,21)           110.0            estimate D2E/DX2                !
 ! A32   A(19,13,20)           109.1316         estimate D2E/DX2                !
 ! A33   A(19,13,21)           108.9359         estimate D2E/DX2                !
 ! A34   A(20,13,21)           108.2203         estimate D2E/DX2                !
 ! D1    D(6,1,2,3)             -0.0137         estimate D2E/DX2                !
 ! D2    D(6,1,2,15)           179.9779         estimate D2E/DX2                !
 ! D3    D(14,1,2,3)           179.9983         estimate D2E/DX2                !
 ! D4    D(14,1,2,15)           -0.0101         estimate D2E/DX2                !
 ! D5    D(2,1,6,5)             -0.0037         estimate D2E/DX2                !
 ! D6    D(2,1,6,7)            179.9871         estimate D2E/DX2                !
 ! D7    D(14,1,6,5)           179.9838         estimate D2E/DX2                !
 ! D8    D(14,1,6,7)            -0.0254         estimate D2E/DX2                !
 ! D9    D(1,2,3,4)             -0.0025         estimate D2E/DX2                !
 ! D10   D(1,2,3,16)           179.9741         estimate D2E/DX2                !
 ! D11   D(15,2,3,4)          -179.9942         estimate D2E/DX2                !
 ! D12   D(15,2,3,16)           -0.0175         estimate D2E/DX2                !
 ! D13   D(2,3,4,5)              0.0358         estimate D2E/DX2                !
 ! D14   D(2,3,4,10)           179.847          estimate D2E/DX2                !
 ! D15   D(16,3,4,5)          -179.9404         estimate D2E/DX2                !
 ! D16   D(16,3,4,10)           -0.1292         estimate D2E/DX2                !
 ! D17   D(3,4,5,6)             -0.0541         estimate D2E/DX2                !
 ! D18   D(3,4,5,17)           179.9231         estimate D2E/DX2                !
 ! D19   D(10,4,5,6)          -179.8648         estimate D2E/DX2                !
 ! D20   D(10,4,5,17)            0.1124         estimate D2E/DX2                !
 ! D21   D(3,4,10,11)           11.4833         estimate D2E/DX2                !
 ! D22   D(3,4,10,12)         -143.593          estimate D2E/DX2                !
 ! D23   D(3,4,10,13)          113.8408         estimate D2E/DX2                !
 ! D24   D(5,4,10,11)         -168.7076         estimate D2E/DX2                !
 ! D25   D(5,4,10,12)           36.2161         estimate D2E/DX2                !
 ! D26   D(5,4,10,13)          -66.3501         estimate D2E/DX2                !
 ! D27   D(4,5,6,1)              0.0379         estimate D2E/DX2                !
 ! D28   D(4,5,6,7)           -179.9531         estimate D2E/DX2                !
 ! D29   D(17,5,6,1)          -179.9388         estimate D2E/DX2                !
 ! D30   D(17,5,6,7)             0.0703         estimate D2E/DX2                !
 ! D31   D(1,6,7,8)             -0.0163         estimate D2E/DX2                !
 ! D32   D(1,6,7,9)           -179.9091         estimate D2E/DX2                !
 ! D33   D(5,6,7,8)            179.9743         estimate D2E/DX2                !
 ! D34   D(5,6,7,9)              0.0816         estimate D2E/DX2                !
 ! D35   D(6,7,9,18)          -179.6986         estimate D2E/DX2                !
 ! D36   D(8,7,9,18)             0.4005         estimate D2E/DX2                !
 ! D37   D(4,10,13,19)        -179.1412         estimate D2E/DX2                !
 ! D38   D(4,10,13,20)         -58.5835         estimate D2E/DX2                !
 ! D39   D(4,10,13,21)          60.313          estimate D2E/DX2                !
 ! D40   D(11,10,13,19)        -59.4461         estimate D2E/DX2                !
 ! D41   D(11,10,13,20)         61.1116         estimate D2E/DX2                !
 ! D42   D(11,10,13,21)       -179.9919         estimate D2E/DX2                !
 ! D43   D(12,10,13,19)         61.7186         estimate D2E/DX2                !
 ! D44   D(12,10,13,20)       -177.7238         estimate D2E/DX2                !
 ! D45   D(12,10,13,21)        -58.8272         estimate D2E/DX2                !
 --------------------------------------------------------------------------------
 Trust Radius=3.00D-01 FncErr=1.00D-07 GrdErr=1.00D-06 EigMax=2.50D+02 EigMin=1.00D-04
 Number of steps in this run=    110 maximum allowed number of steps=    126.
 GradGradGradGradGradGradGradGradGradGradGradGradGradGradGradGradGradGrad

                          Input orientation:                          
 ---------------------------------------------------------------------
 Center     Atomic      Atomic             Coordinates (Angstroms)
 Number     Number       Type             X           Y           Z
 ---------------------------------------------------------------------
      1          6           0       -2.101700   -0.359100    1.504300
      2          6           0       -1.905200   -1.684500    1.581600
      3          6           0       -0.710800   -2.211100    1.274700
      4          6           0        0.295200   -1.410400    0.887800
      5          6           0        0.090600   -0.083400    0.813500
      6          6           0       -1.104200    0.459200    1.118500
      7          6           0       -1.284800    1.810000    1.033500
      8          8           0       -2.337800    2.352300    1.295200
      9          8           0       -0.293500    2.650200    0.645400
     10         16           0        1.893300   -2.106200    0.480600
     11          8           0        1.977700   -3.557500    0.337200
     12          8           0        3.066700   -1.322400    0.857700
     13          6           0        2.130200   -1.808500   -1.329300
     14          1           0       -3.102500    0.021300    1.767700
     15          1           0       -2.729300   -2.345800    1.899200
     16          1           0       -0.572700   -3.302700    1.346000
     17          1           0        0.930900    0.555200    0.494800
     18          1           0       -0.637700    3.557500    0.661100
     19          1           0        3.102500   -2.226900   -1.676100
     20          1           0        1.302300   -2.288300   -1.899200
     21          1           0        2.111000   -0.715500   -1.541200
 ---------------------------------------------------------------------
                    Distance matrix (angstroms):
                    1          2          3          4          5
     1  C    0.000000
     2  C    1.342115   0.000000
     3  C    2.327493   1.340927   0.000000
     4  C    2.688947   2.323413   1.342702   0.000000
     5  C    2.315037   2.671463   2.319926   1.344734   0.000000
     6  C    1.346649   2.334847   2.703639   2.346689   1.347214
     7  C    2.365158   3.591217   4.069017   3.590070   2.350551
     8  O    2.729681   4.070003   4.844808   4.610485   3.473010
     9  O    3.614303   4.718440   4.919593   4.110207   2.765567
    10  S    4.478878   3.977265   2.724506   1.789937   2.729885
    11  O    5.313510   4.487045   3.149561   2.782805   3.982132
    12  O    5.297018   5.037354   3.902971   2.773060   3.224011
    13  C    5.295189   4.977265   3.874814   2.905381   3.424548
    14  H    1.102581   2.092347   3.308608   3.790561   3.334269
    15  H    2.120567   1.103326   2.117188   3.323478   3.774789
    16  H    3.320795   2.109416   1.102609   2.131665   3.329777
    17  H    3.324409   3.773706   3.309961   2.102890   1.102490
    18  H    4.265447   5.471055   5.801603   5.059815   3.716154
    19  H    6.378661   5.998655   4.821693   3.888597   4.456932
    20  H    5.185831   4.771645   3.759278   3.090684   3.699803
    21  H    5.210464   5.178871   4.257777   3.111279   3.166414
                    6          7          8          9         10
     6  C    0.000000
     7  C    1.365468   0.000000
     8  O    2.266455   1.213007   0.000000
     9  O    2.383598   1.356183   2.165675   0.000000
    10  S    3.996649   5.073721   6.200323   5.237613   0.000000
    11  O    5.122735   6.319715   7.380179   6.617316   1.460808
    12  O    4.542964   5.364549   6.550072   5.207453   1.460621
    13  C    4.647099   5.508048   6.645546   5.445527   1.849455
    14  H    2.146257   2.653777   2.498316   4.007637   5.580403
    15  H    3.334437   4.484048   4.752918   5.697820   4.841308
    16  H    3.806066   5.171503   5.924288   6.000484   2.874315
    17  H    2.130692   2.602700   3.815050   2.431226   2.830100
    18  H    3.166433   1.900310   2.178286   0.970522   6.206129
    19  H    5.720249   6.548809   7.706787   6.380304   2.475498
    20  H    4.737775   5.664793   6.707435   5.780169   2.458839
    21  H    4.334909   4.953654   6.103145   4.678758   2.463557
                   11         12         13         14         15
    11  O    0.000000
    12  O    2.540180   0.000000
    13  C    2.420636   2.428229   0.000000
    14  H    6.376721   6.379080   6.349860   0.000000
    15  H    5.105283   5.977097   5.858894   2.399944   0.000000
    16  H    2.754476   4.171961   4.086017   4.198416   2.423347
    17  H    4.246755   2.866831   3.217567   4.263055   4.877008
    18  H    7.587388   6.129817   6.357430   4.450226   6.384092
    19  H    2.662527   2.690640   1.113865   7.444205   6.841549
    20  H    2.658669   3.412707   1.113738   6.179213   5.539400
    21  H    3.409270   2.652623   1.113517   6.218704   6.158144
                   16         17         18         19         20
    16  H    0.000000
    17  H    4.227144   0.000000
    18  H    6.894611   3.391455   0.000000
    19  H    4.878271   4.143517   7.273987   0.000000
    20  H    3.882777   3.735594   6.670241   1.815011   0.000000
    21  H    4.715058   2.674436   5.537509   1.812622   1.804400
                   21
    21  H    0.000000
 Stoichiometry    C8H8O4S
 Framework group  C1[X(C8H8O4S)]
 Deg. of freedom    57
 Full point group                 C1      NOp   1
 Largest Abelian subgroup         C1      NOp   1
 Largest concise Abelian subgroup C1      NOp   1
                         Standard orientation:                         
 ---------------------------------------------------------------------
 Center     Atomic      Atomic             Coordinates (Angstroms)
 Number     Number       Type             X           Y           Z
 ---------------------------------------------------------------------
      1          6           0       -1.932312    1.533058    0.067642
      2          6           0       -0.862500    2.343280    0.049866
      3          6           0        0.373468    1.831160   -0.040695
      4          6           0        0.544190    0.501376   -0.114030
      5          6           0       -0.532756   -0.303722   -0.096309
      6          6           0       -1.780139    0.197026   -0.005337
      7          6           0       -2.856116   -0.643502    0.011561
      8          8           0       -4.000201   -0.248621    0.092342
      9          8           0       -2.723412   -1.991325   -0.059122
     10         16           0        2.190962   -0.188801   -0.239212
     11          8           0        3.316761    0.710842   -0.000094
     12          8           0        2.345174   -1.372509   -1.080918
     13          6           0        2.469767   -1.124686    1.331416
     14          1           0       -2.925379    2.006092    0.143412
     15          1           0       -0.998610    3.436535    0.109833
     16          1           0        1.237238    2.516339   -0.053985
     17          1           0       -0.369270   -1.392225   -0.158896
     18          1           0       -3.609028   -2.387643   -0.036104
     19          1           0        3.486407   -1.579550    1.346893
     20          1           0        2.364398   -0.436760    2.200937
     21          1           0        1.710663   -1.932997    1.432975
 ---------------------------------------------------------------------
 Rotational constants (GHZ):           1.4429698           0.4357625           0.3588549
 Standard basis: Aug-CC-pVTZ (5D, 7F)
 There are   919 symmetry adapted cartesian basis functions of A   symmetry.
 There are   786 symmetry adapted basis functions of A   symmetry.
   786 basis functions,  1194 primitive gaussians,   919 cartesian basis functions
    52 alpha electrons       52 beta electrons
       nuclear repulsion energy       916.7158234378 Hartrees.
 NAtoms=   21 NActive=   21 NUniq=   21 SFac= 1.00D+00 NAtFMM=   60 NAOKFM=F Big=F
 Integral buffers will be    131072 words long.
 Raffenetti 2 integral format.
 Two-electron integral symmetry is turned on.
 One-electron integrals computed using PRISM.
 NBasis=   786 RedAO= T EigKep=  1.01D-06  NBF=   786
 NBsUse=   784 1.00D-06 EigRej=  4.81D-07 NBFU=   784
 ExpMin= 2.53D-02 ExpMax= 3.74D+05 ExpMxC= 1.18D+03 IAcc=3 IRadAn=         5 AccDes= 0.00D+00
 Harris functional with IExCor= 1009 and IRadAn=       5 diagonalized for initial guess.
 HarFok:  IExCor= 1009 AccDes= 0.00D+00 IRadAn=         5 IDoV= 1 UseB2=F ITyADJ=14
 ICtDFT=  3500011 ScaDFX=  1.000000  1.000000  1.000000  1.000000
 FoFCou: FMM=F IPFlag=           0 FMFlag=      100000 FMFlg1=           0
         NFxFlg=           0 DoJE=T BraDBF=F KetDBF=T FulRan=T
         wScrn=  0.000000 ICntrl=       500 IOpCl=  0 I1Cent=   200000004 NGrid=           0
         NMat0=    1 NMatS0=      1 NMatT0=    0 NMatD0=    1 NMtDS0=    0 NMtDT0=    0
 Petite list used in FoFCou.
 Requested convergence on RMS density matrix=1.00D-08 within 128 cycles.
 Requested convergence on MAX density matrix=1.00D-06.
 Requested convergence on             energy=1.00D-06.
 No special actions if energy rises.
 SCF Done:  E(RM062X) =  -1008.66596540     A.U. after   15 cycles
            NFock= 15  Conv=0.37D-08     -V/T= 2.0033

 **********************************************************************

            Population analysis using the SCF Density.

 **********************************************************************

 Orbital symmetries:
       Occupied  (A) (A) (A) (A) (A) (A) (A) (A) (A) (A) (A) (A)
                 (A) (A) (A) (A) (A) (A) (A) (A) (A) (A) (A) (A)
                 (A) (A) (A) (A) (A) (A) (A) (A) (A) (A) (A) (A)
                 (A) (A) (A) (A) (A) (A) (A) (A) (A) (A) (A) (A)
                 (A) (A) (A) (A)
       Virtual   (A) (A) (A) (A) (A) (A) (A) (A) (A) (A) (A) (A)
                 (A) (A) (A) (A) (A) (A) (A) (A) (A) (A) (A) (A)
                 (A) (A) (A) (A) (A) (A) (A) (A) (A) (A) (A) (A)
                 (A) (A) (A) (A) (A) (A) (A) (A) (A) (A) (A) (A)
                 (A) (A) (A) (A) (A) (A) (A) (A) (A) (A) (A) (A)
                 (A) (A) (A) (A) (A) (A) (A) (A) (A) (A) (A) (A)
                 (A) (A) (A) (A) (A) (A) (A) (A) (A) (A) (A) (A)
                 (A) (A) (A) (A) (A) (A) (A) (A) (A) (A) (A) (A)
                 (A) (A) (A) (A) (A) (A) (A) (A) (A) (A) (A) (A)
                 (A) (A) (A) (A) (A) (A) (A) (A) (A) (A) (A) (A)
                 (A) (A) (A) (A) (A) (A) (A) (A) (A) (A) (A) (A)
                 (A) (A) (A) (A) (A) (A) (A) (A) (A) (A) (A) (A)
                 (A) (A) (A) (A) (A) (A) (A) (A) (A) (A) (A) (A)
                 (A) (A) (A) (A) (A) (A) (A) (A) (A) (A) (A) (A)
                 (A) (A) (A) (A) (A) (A) (A) (A) (A) (A) (A) (A)
                 (A) (A) (A) (A) (A) (A) (A) (A) (A) (A) (A) (A)
                 (A) (A) (A) (A) (A) (A) (A) (A) (A) (A) (A) (A)
                 (A) (A) (A) (A) (A) (A) (A) (A) (A) (A) (A) (A)
                 (A) (A) (A) (A) (A) (A) (A) (A) (A) (A) (A) (A)
                 (A) (A) (A) (A) (A) (A) (A) (A) (A) (A) (A) (A)
                 (A) (A) (A) (A) (A) (A) (A) (A) (A) (A) (A) (A)
                 (A) (A) (A) (A) (A) (A) (A) (A) (A) (A) (A) (A)
                 (A) (A) (A) (A) (A) (A) (A) (A) (A) (A) (A) (A)
                 (A) (A) (A) (A) (A) (A) (A) (A) (A) (A) (A) (A)
                 (A) (A) (A) (A) (A) (A) (A) (A) (A) (A) (A) (A)
                 (A) (A) (A) (A) (A) (A) (A) (A) (A) (A) (A) (A)
                 (A) (A) (A) (A) (A) (A) (A) (A) (A) (A) (A) (A)
                 (A) (A) (A) (A) (A) (A) (A) (A) (A) (A) (A) (A)
                 (A) (A) (A) (A) (A) (A) (A) (A) (A) (A) (A) (A)
                 (A) (A) (A) (A) (A) (A) (A) (A) (A) (A) (A) (A)
                 (A) (A) (A) (A) (A) (A) (A) (A) (A) (A) (A) (A)
                 (A) (A) (A) (A) (A) (A) (A) (A) (A) (A) (A) (A)
                 (A) (A) (A) (A) (A) (A) (A) (A) (A) (A) (A) (A)
                 (A) (A) (A) (A) (A) (A) (A) (A) (A) (A) (A) (A)
                 (A) (A) (A) (A) (A) (A) (A) (A) (A) (A) (A) (A)
                 (A) (A) (A) (A) (A) (A) (A) (A) (A) (A) (A) (A)
                 (A) (A) (A) (A) (A) (A) (A) (A) (A) (A) (A) (A)
                 (A) (A) (A) (A) (A) (A) (A) (A) (A) (A) (A) (A)
                 (A) (A) (A) (A) (A) (A) (A) (A) (A) (A) (A) (A)
                 (A) (A) (A) (A) (A) (A) (A) (A) (A) (A) (A) (A)
                 (A) (A) (A) (A) (A) (A) (A) (A) (A) (A) (A) (A)
                 (A) (A) (A) (A) (A) (A) (A) (A) (A) (A) (A) (A)
                 (A) (A) (A) (A) (A) (A) (A) (A) (A) (A) (A) (A)
                 (A) (A) (A) (A) (A) (A) (A) (A) (A) (A) (A) (A)
                 (A) (A) (A) (A) (A) (A) (A) (A) (A) (A) (A) (A)
                 (A) (A) (A) (A) (A) (A) (A) (A) (A) (A) (A) (A)
                 (A) (A) (A) (A) (A) (A) (A) (A) (A) (A) (A) (A)
                 (A) (A) (A) (A) (A) (A) (A) (A) (A) (A) (A) (A)
                 (A) (A) (A) (A) (A) (A) (A) (A) (A) (A) (A) (A)
                 (A) (A) (A) (A) (A) (A) (A) (A) (A) (A) (A) (A)
                 (A) (A) (A) (A) (A) (A) (A) (A) (A) (A) (A) (A)
                 (A) (A) (A) (A) (A) (A) (A) (A) (A) (A) (A) (A)
                 (A) (A) (A) (A) (A) (A) (A) (A) (A) (A) (A) (A)
                 (A) (A) (A) (A) (A) (A) (A) (A) (A) (A) (A) (A)
                 (A) (A) (A) (A) (A) (A) (A) (A) (A) (A) (A) (A)
                 (A) (A) (A) (A) (A) (A) (A) (A) (A) (A) (A) (A)
                 (A) (A) (A) (A) (A) (A) (A) (A) (A) (A) (A) (A)
                 (A) (A) (A) (A) (A) (A) (A) (A) (A) (A) (A) (A)
                 (A) (A) (A) (A) (A) (A) (A) (A) (A) (A) (A) (A)
                 (A) (A) (A) (A) (A) (A) (A) (A) (A) (A) (A) (A)
                 (A) (A) (A) (A) (A) (A) (A) (A) (A) (A) (A) (A)
 The electronic state is 1-A.
 Alpha  occ. eigenvalues --  -90.14322 -19.68602 -19.62899 -19.62573 -19.62274
 Alpha  occ. eigenvalues --  -10.69449 -10.61385 -10.59844 -10.59505 -10.58936
 Alpha  occ. eigenvalues --  -10.58732 -10.58093 -10.56272  -8.45205  -6.37296
 Alpha  occ. eigenvalues --   -6.37288  -6.37228  -1.25920  -1.23216  -1.15029
 Alpha  occ. eigenvalues --   -1.12735  -1.05486  -0.94648  -0.92374  -0.83438
 Alpha  occ. eigenvalues --   -0.80674  -0.77927  -0.73731  -0.68386  -0.65330
 Alpha  occ. eigenvalues --   -0.61854  -0.59165  -0.58681  -0.57842  -0.57355
 Alpha  occ. eigenvalues --   -0.56171  -0.54447  -0.53791  -0.50811  -0.50589
 Alpha  occ. eigenvalues --   -0.48907  -0.48491  -0.46718  -0.46178  -0.41979
 Alpha  occ. eigenvalues --   -0.41621  -0.40510  -0.38765  -0.37804  -0.37238
 Alpha  occ. eigenvalues --   -0.37060  -0.33898
 Alpha virt. eigenvalues --   -0.06472  -0.04487  -0.01647  -0.00589   0.00107
 Alpha virt. eigenvalues --    0.00788   0.01519   0.01729   0.02335   0.02566
 Alpha virt. eigenvalues --    0.03375   0.03945   0.04208   0.05127   0.05557
 Alpha virt. eigenvalues --    0.05773   0.06018   0.06418   0.06711   0.07140
 Alpha virt. eigenvalues --    0.07669   0.07767   0.08028   0.08481   0.08631
 Alpha virt. eigenvalues --    0.09085   0.09674   0.09974   0.10241   0.10595
 Alpha virt. eigenvalues --    0.10760   0.11182   0.11476   0.11813   0.11938
 Alpha virt. eigenvalues --    0.12246   0.12833   0.13751   0.13831   0.14104
 Alpha virt. eigenvalues --    0.14856   0.15714   0.15924   0.16499   0.16861
 Alpha virt. eigenvalues --    0.17501   0.17861   0.18183   0.18494   0.18991
 Alpha virt. eigenvalues --    0.19115   0.19294   0.19636   0.19804   0.20196
 Alpha virt. eigenvalues --    0.20359   0.20735   0.21209   0.21492   0.22337
 Alpha virt. eigenvalues --    0.22467   0.22804   0.23102   0.23311   0.23663
 Alpha virt. eigenvalues --    0.24200   0.24461   0.24802   0.25293   0.25988
 Alpha virt. eigenvalues --    0.26435   0.26863   0.27308   0.28122   0.28219
 Alpha virt. eigenvalues --    0.28571   0.29180   0.29548   0.30168   0.30371
 Alpha virt. eigenvalues --    0.30713   0.31231   0.31715   0.32048   0.32180
 Alpha virt. eigenvalues --    0.32460   0.32983   0.33305   0.33491   0.33866
 Alpha virt. eigenvalues --    0.34037   0.34160   0.34859   0.35221   0.35486
 Alpha virt. eigenvalues --    0.36435   0.36803   0.37085   0.37524   0.37900
 Alpha virt. eigenvalues --    0.38306   0.38567   0.39220   0.39299   0.39590
 Alpha virt. eigenvalues --    0.39918   0.40059   0.40656   0.41074   0.41850
 Alpha virt. eigenvalues --    0.42254   0.42492   0.42906   0.43117   0.43895
 Alpha virt. eigenvalues --    0.44323   0.44456   0.44738   0.45151   0.45947
 Alpha virt. eigenvalues --    0.46168   0.46630   0.47702   0.48377   0.49160
 Alpha virt. eigenvalues --    0.49421   0.49622   0.50666   0.51030   0.51365
 Alpha virt. eigenvalues --    0.52042   0.52496   0.53080   0.53825   0.54520
 Alpha virt. eigenvalues --    0.55297   0.55418   0.56378   0.56560   0.57587
 Alpha virt. eigenvalues --    0.57885   0.58350   0.59501   0.59807   0.60253
 Alpha virt. eigenvalues --    0.60446   0.61362   0.61757   0.62471   0.62819
 Alpha virt. eigenvalues --    0.63711   0.64297   0.65204   0.65953   0.66280
 Alpha virt. eigenvalues --    0.66562   0.66858   0.67430   0.68630   0.69018
 Alpha virt. eigenvalues --    0.69309   0.69912   0.69998   0.70890   0.71320
 Alpha virt. eigenvalues --    0.71393   0.71667   0.72190   0.72876   0.73032
 Alpha virt. eigenvalues --    0.73999   0.74464   0.75095   0.75717   0.76431
 Alpha virt. eigenvalues --    0.76726   0.77004   0.77454   0.77964   0.78488
 Alpha virt. eigenvalues --    0.78714   0.79117   0.79571   0.80343   0.80529
 Alpha virt. eigenvalues --    0.80699   0.81349   0.81712   0.82571   0.82821
 Alpha virt. eigenvalues --    0.83051   0.83405   0.84258   0.84799   0.84977
 Alpha virt. eigenvalues --    0.85636   0.86059   0.86543   0.87195   0.87976
 Alpha virt. eigenvalues --    0.88261   0.88803   0.89362   0.89604   0.90362
 Alpha virt. eigenvalues --    0.90824   0.90977   0.91679   0.92172   0.92368
 Alpha virt. eigenvalues --    0.92494   0.92830   0.93699   0.94018   0.94509
 Alpha virt. eigenvalues --    0.94816   0.95711   0.95875   0.96484   0.96874
 Alpha virt. eigenvalues --    0.97427   0.97506   0.98177   0.98935   0.99245
 Alpha virt. eigenvalues --    0.99801   1.00617   1.00977   1.01823   1.02054
 Alpha virt. eigenvalues --    1.02909   1.03638   1.04199   1.04826   1.05083
 Alpha virt. eigenvalues --    1.05184   1.05943   1.06697   1.06939   1.07700
 Alpha virt. eigenvalues --    1.08617   1.09136   1.09432   1.09944   1.10657
 Alpha virt. eigenvalues --    1.11306   1.12080   1.12555   1.12811   1.13946
 Alpha virt. eigenvalues --    1.14151   1.14878   1.15224   1.15818   1.16490
 Alpha virt. eigenvalues --    1.17230   1.17665   1.18436   1.18865   1.20034
 Alpha virt. eigenvalues --    1.20326   1.20763   1.21038   1.21706   1.22300
 Alpha virt. eigenvalues --    1.22895   1.23604   1.24395   1.25436   1.25760
 Alpha virt. eigenvalues --    1.26643   1.27210   1.27550   1.28453   1.29666
 Alpha virt. eigenvalues --    1.30709   1.30873   1.31657   1.32261   1.32941
 Alpha virt. eigenvalues --    1.34010   1.34551   1.35104   1.35922   1.36836
 Alpha virt. eigenvalues --    1.37262   1.37599   1.39211   1.39610   1.41162
 Alpha virt. eigenvalues --    1.41836   1.42106   1.42314   1.43226   1.43366
 Alpha virt. eigenvalues --    1.44554   1.45556   1.45989   1.46368   1.47513
 Alpha virt. eigenvalues --    1.47976   1.48245   1.49240   1.49940   1.52116
 Alpha virt. eigenvalues --    1.52291   1.52752   1.53294   1.53621   1.54408
 Alpha virt. eigenvalues --    1.55213   1.56701   1.57378   1.57584   1.58387
 Alpha virt. eigenvalues --    1.59484   1.60168   1.61043   1.61573   1.61780
 Alpha virt. eigenvalues --    1.63124   1.63939   1.64485   1.64845   1.66145
 Alpha virt. eigenvalues --    1.66363   1.67181   1.67778   1.67915   1.68855
 Alpha virt. eigenvalues --    1.69525   1.70694   1.71653   1.71982   1.73105
 Alpha virt. eigenvalues --    1.73450   1.74805   1.76544   1.76823   1.77306
 Alpha virt. eigenvalues --    1.78845   1.79011   1.80048   1.80964   1.81411
 Alpha virt. eigenvalues --    1.82544   1.84577   1.84714   1.85208   1.86408
 Alpha virt. eigenvalues --    1.87339   1.87551   1.88735   1.89178   1.90095
 Alpha virt. eigenvalues --    1.91594   1.92521   1.92684   1.93004   1.94335
 Alpha virt. eigenvalues --    1.95736   1.96555   1.98217   1.98668   1.99179
 Alpha virt. eigenvalues --    2.00320   2.01794   2.01900   2.02780   2.02818
 Alpha virt. eigenvalues --    2.04639   2.05088   2.05853   2.06650   2.08255
 Alpha virt. eigenvalues --    2.09573   2.09910   2.11344   2.12333   2.13100
 Alpha virt. eigenvalues --    2.14058   2.14782   2.16764   2.17865   2.19034
 Alpha virt. eigenvalues --    2.19571   2.20495   2.21266   2.22229   2.22549
 Alpha virt. eigenvalues --    2.23868   2.24491   2.24736   2.25319   2.26128
 Alpha virt. eigenvalues --    2.26848   2.27829   2.29343   2.30320   2.30924
 Alpha virt. eigenvalues --    2.32185   2.32995   2.34239   2.35406   2.35877
 Alpha virt. eigenvalues --    2.36356   2.38631   2.38799   2.39945   2.40762
 Alpha virt. eigenvalues --    2.41428   2.41689   2.42348   2.43487   2.44338
 Alpha virt. eigenvalues --    2.44660   2.46234   2.46947   2.48467   2.49468
 Alpha virt. eigenvalues --    2.50298   2.52002   2.52274   2.52648   2.55122
 Alpha virt. eigenvalues --    2.56572   2.56935   2.57931   2.58541   2.59965
 Alpha virt. eigenvalues --    2.61147   2.62384   2.63446   2.64748   2.65545
 Alpha virt. eigenvalues --    2.65680   2.66785   2.67269   2.69981   2.71796
 Alpha virt. eigenvalues --    2.72706   2.73813   2.75938   2.77281   2.77720
 Alpha virt. eigenvalues --    2.78647   2.81603   2.82118   2.85049   2.85985
 Alpha virt. eigenvalues --    2.88969   2.89231   2.93045   2.93742   2.95884
 Alpha virt. eigenvalues --    2.96453   2.97073   2.98233   2.99177   3.00403
 Alpha virt. eigenvalues --    3.01425   3.03371   3.05010   3.05822   3.07344
 Alpha virt. eigenvalues --    3.09147   3.10172   3.10612   3.11335   3.12057
 Alpha virt. eigenvalues --    3.13918   3.14654   3.15074   3.16409   3.17574
 Alpha virt. eigenvalues --    3.18272   3.18970   3.20484   3.21280   3.22091
 Alpha virt. eigenvalues --    3.24173   3.25518   3.25678   3.26368   3.26565
 Alpha virt. eigenvalues --    3.27848   3.28383   3.30429   3.31025   3.32738
 Alpha virt. eigenvalues --    3.34223   3.34660   3.36767   3.37546   3.39154
 Alpha virt. eigenvalues --    3.39830   3.40863   3.41466   3.41725   3.43241
 Alpha virt. eigenvalues --    3.43709   3.44792   3.45763   3.46631   3.48031
 Alpha virt. eigenvalues --    3.49092   3.49629   3.51085   3.52421   3.53171
 Alpha virt. eigenvalues --    3.54458   3.55013   3.55812   3.56529   3.57807
 Alpha virt. eigenvalues --    3.58382   3.59117   3.60066   3.61402   3.62470
 Alpha virt. eigenvalues --    3.62731   3.63914   3.64015   3.64908   3.65775
 Alpha virt. eigenvalues --    3.67480   3.68579   3.70190   3.72251   3.73707
 Alpha virt. eigenvalues --    3.75260   3.76067   3.78207   3.78642   3.79545
 Alpha virt. eigenvalues --    3.81729   3.82257   3.83287   3.83876   3.83987
 Alpha virt. eigenvalues --    3.85330   3.85981   3.86543   3.87488   3.88000
 Alpha virt. eigenvalues --    3.88592   3.89984   3.90738   3.92663   3.94069
 Alpha virt. eigenvalues --    3.94421   3.96425   3.97189   3.98107   3.98959
 Alpha virt. eigenvalues --    3.99554   4.00337   4.01654   4.01916   4.02744
 Alpha virt. eigenvalues --    4.04009   4.06319   4.07739   4.09505   4.10420
 Alpha virt. eigenvalues --    4.10478   4.11057   4.13847   4.14812   4.15772
 Alpha virt. eigenvalues --    4.17047   4.17579   4.19797   4.20957   4.21430
 Alpha virt. eigenvalues --    4.22188   4.23362   4.24572   4.26899   4.30122
 Alpha virt. eigenvalues --    4.31135   4.32803   4.34404   4.35797   4.36666
 Alpha virt. eigenvalues --    4.37249   4.41628   4.42565   4.43001   4.43475
 Alpha virt. eigenvalues --    4.44815   4.45719   4.47015   4.48133   4.50603
 Alpha virt. eigenvalues --    4.53523   4.55043   4.57639   4.58577   4.59727
 Alpha virt. eigenvalues --    4.60673   4.61068   4.63325   4.63959   4.65767
 Alpha virt. eigenvalues --    4.66516   4.67666   4.68212   4.70077   4.70624
 Alpha virt. eigenvalues --    4.72296   4.73758   4.74181   4.75233   4.76750
 Alpha virt. eigenvalues --    4.79804   4.80734   4.81670   4.82442   4.84171
 Alpha virt. eigenvalues --    4.85216   4.88045   4.90861   4.91314   4.93082
 Alpha virt. eigenvalues --    4.96242   4.97308   4.98263   4.98942   5.01107
 Alpha virt. eigenvalues --    5.02533   5.04231   5.06470   5.09510   5.09968
 Alpha virt. eigenvalues --    5.10409   5.13663   5.18108   5.18928   5.23555
 Alpha virt. eigenvalues --    5.27919   5.31429   5.33732   5.35694   5.36922
 Alpha virt. eigenvalues --    5.40871   5.44932   5.47744   5.48778   5.50726
 Alpha virt. eigenvalues --    5.56971   5.57742   5.61245   5.64239   5.73325
 Alpha virt. eigenvalues --    5.85537   5.86064   5.88316   5.91979   5.95844
 Alpha virt. eigenvalues --    6.04547   6.08551   6.22215   6.22756   6.24464
 Alpha virt. eigenvalues --    6.25329   6.25890   6.27598   6.29297   6.31605
 Alpha virt. eigenvalues --    6.33750   6.36075   6.36528   6.38144   6.39012
 Alpha virt. eigenvalues --    6.41621   6.42652   6.44228   6.44998   6.46214
 Alpha virt. eigenvalues --    6.49093   6.53353   6.53496   6.54575   6.54709
 Alpha virt. eigenvalues --    6.55715   6.58480   6.60394   6.63725   6.64543
 Alpha virt. eigenvalues --    6.67801   6.70319   6.74217   6.74828   6.77958
 Alpha virt. eigenvalues --    6.79174   6.81877   6.82241   6.84643   6.84977
 Alpha virt. eigenvalues --    6.85902   6.89848   6.95837   7.04941   7.07391
 Alpha virt. eigenvalues --    7.08580   7.10128   7.14060   7.16933   7.17894
 Alpha virt. eigenvalues --    7.21221   7.22666   7.31252   7.32401   7.38795
 Alpha virt. eigenvalues --    7.51387   7.69087   7.88973   8.04121  12.20206
 Alpha virt. eigenvalues --   12.50844  13.83398  15.44128  15.69816  16.25975
 Alpha virt. eigenvalues --   17.02318  17.82613  18.30634  19.36560  20.11715
 Alpha virt. eigenvalues --   20.27964  20.89136
          Condensed to atoms (all electrons):
               1          2          3          4          5          6
     1  C    8.932539  -0.516787  -0.000691  -0.442349   0.206859  -1.005363
     2  C   -0.516787   7.867322  -0.302704   0.229322  -0.360117  -0.011540
     3  C   -0.000691  -0.302704   9.129831  -1.746046   0.117618  -0.441153
     4  C   -0.442349   0.229322  -1.746046   9.086866  -1.299734   0.189613
     5  C    0.206859  -0.360117   0.117618  -1.299734  10.065680  -1.392654
     6  C   -1.005363  -0.011540  -0.441153   0.189613  -1.392654   8.797921
     7  C   -0.725434  -0.011096   0.163951   0.124087  -0.671539  -0.834702
     8  O    0.073780  -0.053535   0.011354  -0.048968   0.149053  -0.291535
     9  O    0.019679  -0.014575   0.019413  -0.028451  -0.098261   0.121645
    10  S    0.073515   0.066732  -0.408305  -0.260321   0.002456  -0.038855
    11  O   -0.004577  -0.009011   0.026889   0.007964  -0.023583   0.013311
    12  O   -0.000651  -0.011435  -0.056218   0.166870  -0.072610   0.001404
    13  C    0.010849  -0.009390  -0.063826   0.151757  -0.064930   0.016599
    14  H    0.840744  -0.564815   0.134904  -0.102255   0.047148  -0.803329
    15  H   -0.821851   0.570271  -0.832779   0.464686  -0.163893   0.250679
    16  H    0.124123  -0.490704   0.785278  -1.075799   0.183915  -0.052607
    17  H    0.001975  -0.079672   0.072894  -0.457600   0.354685  -0.549152
    18  H   -0.016460   0.005540  -0.005213   0.012595  -0.036371   0.020535
    19  H   -0.000247   0.001265  -0.001893  -0.023311   0.020597  -0.000701
    20  H   -0.004269   0.003265  -0.013251   0.035235  -0.025419   0.003795
    21  H   -0.000608   0.001642  -0.003365   0.041762  -0.033117   0.003222
               7          8          9         10         11         12
     1  C   -0.725434   0.073780   0.019679   0.073515  -0.004577  -0.000651
     2  C   -0.011096  -0.053535  -0.014575   0.066732  -0.009011  -0.011435
     3  C    0.163951   0.011354   0.019413  -0.408305   0.026889  -0.056218
     4  C    0.124087  -0.048968  -0.028451  -0.260321   0.007964   0.166870
     5  C   -0.671539   0.149053  -0.098261   0.002456  -0.023583  -0.072610
     6  C   -0.834702  -0.291535   0.121645  -0.038855   0.013311   0.001404
     7  C    7.892351  -0.077111  -0.043650  -0.078065   0.003818   0.010619
     8  O   -0.077111   9.376102  -0.131037   0.002215  -0.000027   0.000196
     9  O   -0.043650  -0.131037   8.624918   0.003061   0.000172   0.000629
    10  S   -0.078065   0.002215   0.003061  15.060269  -0.023391  -0.061725
    11  O    0.003818  -0.000027   0.000172  -0.023391   8.984665  -0.018985
    12  O    0.010619   0.000196   0.000629  -0.061725  -0.018985   8.964878
    13  C   -0.001893   0.000082   0.000253   0.286033  -0.198363  -0.152756
    14  H   -0.053973  -0.010381   0.012271   0.001686  -0.000223  -0.000787
    15  H    0.034220  -0.004696  -0.002353  -0.007016   0.000466   0.001791
    16  H   -0.010822   0.000651   0.001490  -0.141194   0.063030  -0.006242
    17  H    0.067906   0.020674  -0.063986  -0.116865   0.013803   0.081154
    18  H    0.086499  -0.096826   0.161551  -0.000894   0.000028   0.000116
    19  H   -0.001468   0.000029   0.000110  -0.006795  -0.005796   0.014695
    20  H    0.000487  -0.000052   0.000038  -0.051091   0.033801   0.011647
    21  H    0.004494  -0.000222  -0.000854  -0.059849   0.019454   0.036122
              13         14         15         16         17         18
     1  C    0.010849   0.840744  -0.821851   0.124123   0.001975  -0.016460
     2  C   -0.009390  -0.564815   0.570271  -0.490704  -0.079672   0.005540
     3  C   -0.063826   0.134904  -0.832779   0.785278   0.072894  -0.005213
     4  C    0.151757  -0.102255   0.464686  -1.075799  -0.457600   0.012595
     5  C   -0.064930   0.047148  -0.163893   0.183915   0.354685  -0.036371
     6  C    0.016599  -0.803329   0.250679  -0.052607  -0.549152   0.020535
     7  C   -0.001893  -0.053973   0.034220  -0.010822   0.067906   0.086499
     8  O    0.000082  -0.010381  -0.004696   0.000651   0.020674  -0.096826
     9  O    0.000253   0.012271  -0.002353   0.001490  -0.063986   0.161551
    10  S    0.286033   0.001686  -0.007016  -0.141194  -0.116865  -0.000894
    11  O   -0.198363  -0.000223   0.000466   0.063030   0.013803   0.000028
    12  O   -0.152756  -0.000787   0.001791  -0.006242   0.081154   0.000116
    13  C    6.070474   0.000876  -0.000980   0.003145  -0.034450   0.000005
    14  H    0.000876   1.949359  -0.556148   0.066877  -0.032530  -0.001309
    15  H   -0.000980  -0.556148   2.222764  -0.524545   0.007327   0.000332
    16  H    0.003145   0.066877  -0.524545   1.890801  -0.012246  -0.000223
    17  H   -0.034450  -0.032530   0.007327  -0.012246   1.617151  -0.007954
    18  H    0.000005  -0.001309   0.000332  -0.000223  -0.007954   0.582498
    19  H    0.359767  -0.000028   0.000070  -0.002297   0.004601  -0.000105
    20  H    0.334864  -0.000552   0.000967  -0.000866  -0.004852   0.000110
    21  H    0.282010   0.000625  -0.000712   0.002681  -0.014627   0.000132
              19         20         21
     1  C   -0.000247  -0.004269  -0.000608
     2  C    0.001265   0.003265   0.001642
     3  C   -0.001893  -0.013251  -0.003365
     4  C   -0.023311   0.035235   0.041762
     5  C    0.020597  -0.025419  -0.033117
     6  C   -0.000701   0.003795   0.003222
     7  C   -0.001468   0.000487   0.004494
     8  O    0.000029  -0.000052  -0.000222
     9  O    0.000110   0.000038  -0.000854
    10  S   -0.006795  -0.051091  -0.059849
    11  O   -0.005796   0.033801   0.019454
    12  O    0.014695   0.011647   0.036122
    13  C    0.359767   0.334864   0.282010
    14  H   -0.000028  -0.000552   0.000625
    15  H    0.000070   0.000967  -0.000712
    16  H   -0.002297  -0.000866   0.002681
    17  H    0.004601  -0.004852  -0.014627
    18  H   -0.000105   0.000110   0.000132
    19  H    0.402524  -0.026439  -0.032138
    20  H   -0.026439   0.365820   0.037628
    21  H   -0.032138   0.037628   0.393736
 Mulliken charges:
               1
     1  C   -0.744776
     2  C   -0.309979
     3  C   -0.586689
     4  C    0.974076
     5  C   -0.905783
     6  C    2.002868
     7  C    0.121323
     8  O   -0.919747
     9  O   -0.582062
    10  S    1.758398
    11  O   -0.883446
    12  O   -0.908711
    13  C   -0.990128
    14  H    0.071841
    15  H    0.361402
    16  H    0.195555
    17  H    0.131766
    18  H    0.295415
    19  H    0.297562
    20  H    0.299134
    21  H    0.321983
 Sum of Mulliken charges =   0.00000
 Mulliken charges with hydrogens summed into heavy atoms:
               1
     1  C   -0.672935
     2  C    0.051423
     3  C   -0.391134
     4  C    0.974076
     5  C   -0.774017
     6  C    2.002868
     7  C    0.121323
     8  O   -0.919747
     9  O   -0.286648
    10  S    1.758398
    11  O   -0.883446
    12  O   -0.908711
    13  C   -0.071450
 Electronic spatial extent (au):  <R**2>=           2957.2879
 Charge=              0.0000 electrons
 Dipole moment (field-independent basis, Debye):
    X=             -2.8550    Y=              1.4268    Z=              2.0082  Tot=              3.7709
 Quadrupole moment (field-independent basis, Debye-Ang):
   XX=           -101.5553   YY=            -72.8147   ZZ=            -83.5067
   XY=              2.0877   XZ=              6.3171   YZ=             -3.8877
 Traceless Quadrupole moment (field-independent basis, Debye-Ang):
   XX=            -15.5964   YY=             13.1442   ZZ=              2.4522
   XY=              2.0877   XZ=              6.3171   YZ=             -3.8877
 Octapole moment (field-independent basis, Debye-Ang**2):
  XXX=             -7.3189  YYY=              5.4190  ZZZ=              0.4654  XYY=            -30.9907
  XXY=            -36.2192  XXZ=             12.5235  XZZ=             -0.2697  YZZ=             -3.2672
  YYZ=              5.7218  XYZ=            -11.1778
 Hexadecapole moment (field-independent basis, Debye-Ang**3):
 XXXX=          -3021.4197 YYYY=           -745.2307 ZZZZ=           -229.8399 XXXY=             65.0566
 XXXZ=             52.6541 YYYX=             58.9575 YYYZ=             -0.3745 ZZZX=              2.0461
 ZZZY=              0.5638 XXYY=           -489.3824 XXZZ=           -480.8911 YYZZ=           -192.4610
 XXYZ=            -22.7201 YYXZ=              9.9815 ZZXY=             15.8716
 N-N= 9.167158234378D+02 E-N=-4.206236792433D+03  KE= 1.005307788774D+03
 ******************************Gaussian NBO Version 3.1******************************
             N A T U R A L   A T O M I C   O R B I T A L   A N D
          N A T U R A L   B O N D   O R B I T A L   A N A L Y S I S
 ******************************Gaussian NBO Version 3.1******************************
       /RESON  / : Allow strongly delocalized NBO set

 Analyzing the SCF density

 Job title: m-SO2Me                                                         

 Storage needed:   1856694 in NPA,   2474033 in NBO (********** available)
 GSVD:  LWork=       62346 too small for GESVD, short by     1043829 words or     1043829 for optimal perf.
 Remove ICRem=   66 ICRemI=   54 L=2 PNAO number   78 atom    2 type 255 NPNAO=  786
   due to symmetric orthogonalization 2, value= 0.00D+00.
 Remove ICRem=   66 ICRemI=   54 L=2 PNAO number   75 atom    2 type 254 NPNAO=  785
   due to symmetric orthogonalization 2, value= 0.00D+00.
 Remove ICRem=   66 ICRemI=   54 L=2 PNAO number   72 atom    2 type 253 NPNAO=  784
   due to symmetric orthogonalization 2, value= 0.00D+00.
 Remove ICRem=   66 ICRemI=   54 L=2 PNAO number   69 atom    2 type 252 NPNAO=  783
   due to symmetric orthogonalization 2, value= 0.00D+00.
 Remove ICRem=   66 ICRemI=   54 L=2 PNAO number   66 atom    2 type 251 NPNAO=  782
   due to symmetric orthogonalization 2, value= 0.00D+00.
 GSVD:  LWork=       72836 too small for GESVD, short by     1012404 words or     1012404 for optimal perf.
 Remove ICRem=   55 ICRemI=   54 L=1 PNAO number   63 atom    2 type 153 NPNAO=  781
   due to symmetric orthogonalization 2, value= 0.00D+00.
 Remove ICRem=   55 ICRemI=   54 L=1 PNAO number   59 atom    2 type 152 NPNAO=  780
   due to symmetric orthogonalization 2, value= 0.00D+00.
 Remove ICRem=   55 ICRemI=   54 L=1 PNAO number   55 atom    2 type 151 NPNAO=  779
   due to symmetric orthogonalization 2, value= 0.00D+00.
 GSVD:  LWork=       79082 too small for GESVD, short by      993693 words or      993693 for optimal perf.

 Computed number of electrons  103.99935057 does not match expected value of   104.


 NATURAL POPULATIONS:  Natural atomic orbital occupancies 
                                                          
   NAO  Atom  No  lang   Type(AO)    Occupancy      Energy
 ----------------------------------------------------------
     1    C    1  S      Cor( 1S)     1.99916     -10.41890
     2    C    1  S      Val( 2S)     0.95122      -0.21837
     3    C    1  S      Ryd( 3S)     0.00485       1.60335
     4    C    1  S      Ryd( 5S)     0.00017       3.20128
     5    C    1  S      Ryd( 4S)     0.00002       2.29338
     6    C    1  px     Val( 2p)     1.17858      -0.11865
     7    C    1  px     Ryd( 4p)     0.00629       1.63000
     8    C    1  px     Ryd( 5p)     0.00054       2.97577
     9    C    1  px     Ryd( 3p)     0.00014       0.94466
    10    C    1  py     Val( 2p)     1.05801      -0.08651
    11    C    1  py     Ryd( 4p)     0.01126       1.47401
    12    C    1  py     Ryd( 5p)     0.00051       2.60812
    13    C    1  py     Ryd( 3p)     0.00003       1.22910
    14    C    1  pz     Val( 2p)     0.90324      -0.14814
    15    C    1  pz     Ryd( 4p)     0.00119       0.76608
    16    C    1  pz     Ryd( 5p)     0.00053       2.08049
    17    C    1  pz     Ryd( 3p)     0.00004       0.64163
    18    C    1  dxy    Ryd( 3d)     0.00131       2.42925
    19    C    1  dxy    Ryd( 4d)     0.00051       3.72418
    20    C    1  dxy    Ryd( 5d)     0.00010       3.86583
    21    C    1  dxz    Ryd( 3d)     0.00155       1.03203
    22    C    1  dxz    Ryd( 5d)     0.00036       3.16253
    23    C    1  dxz    Ryd( 4d)     0.00018       2.11393
    24    C    1  dyz    Ryd( 3d)     0.00081       1.02043
    25    C    1  dyz    Ryd( 5d)     0.00025       3.26597
    26    C    1  dyz    Ryd( 4d)     0.00003       2.07316
    27    C    1  dx2y2  Ryd( 3d)     0.00388       2.55782
    28    C    1  dx2y2  Ryd( 5d)     0.00084       3.96081
    29    C    1  dx2y2  Ryd( 4d)     0.00011       3.38877
    30    C    1  dz2    Ryd( 3d)     0.00109       1.10251
    31    C    1  dz2    Ryd( 5d)     0.00043       4.05122
    32    C    1  dz2    Ryd( 4d)     0.00008       3.94293
    33    C    1  f(0)   Ryd( 4f)     0.00006       1.31399
    34    C    1  f(0)   Ryd( 5f)     0.00016       3.49095
    35    C    1  f(C1)  Ryd( 4f)     0.00116       1.73067
    36    C    1  f(C1)  Ryd( 5f)     0.00015       3.66937
    37    C    1  f(S1)  Ryd( 4f)     0.00060       1.67142
    38    C    1  f(S1)  Ryd( 5f)     0.00023       3.62529
    39    C    1  f(C2)  Ryd( 4f)     0.00021       1.33180
    40    C    1  f(C2)  Ryd( 5f)     0.00001       3.59504
    41    C    1  f(S2)  Ryd( 4f)     0.00110       1.36412
    42    C    1  f(S2)  Ryd( 5f)     0.00018       3.55627
    43    C    1  f(C3)  Ryd( 4f)     0.00212       1.86793
    44    C    1  f(C3)  Ryd( 5f)     0.00012       4.31095
    45    C    1  f(S3)  Ryd( 4f)     0.00117       2.52534
    46    C    1  f(S3)  Ryd( 5f)     0.00024       4.05626
 
    47    C    2  S      Cor( 1S)     1.99910     -10.41362
    48    C    2  S      Val( 2S)     0.94909      -0.22459
    49    C    2  S      Ryd( 4S)     0.00071       2.61394
    50    C    2  S      Ryd( 3S)     0.00055       1.48897
    51    C    2  S      Ryd( 5S)     0.00001       3.40845
    52    C    2  px     Val( 2p)     1.00757      -0.06931
    53    C    2  px     Ryd( 4p)     0.00035       1.62983
    54    C    2  px     Ryd( 3p)     0.00011       0.88336
    55    C    2  py     Val( 2p)     1.15751      -0.08502
    56    C    2  py     Ryd( 4p)     0.00199       1.46945
    57    C    2  py     Ryd( 3p)     0.00015       0.91516
    58    C    2  pz     Val( 2p)     0.96634      -0.13398
    59    C    2  pz     Ryd( 4p)     0.00164       0.95664
    60    C    2  pz     Ryd( 3p)     0.00011       0.77588
    61    C    2  dxy    Ryd( 4d)     0.00436       2.81385
    62    C    2  dxy    Ryd( 3d)     0.00008       1.91135
    63    C    2  dxz    Ryd( 3d)     0.00016       1.11761
    64    C    2  dxz    Ryd( 4d)     0.00003       2.12518
    65    C    2  dyz    Ryd( 3d)     0.00257       1.17044
    66    C    2  dyz    Ryd( 4d)     0.00012       1.65464
    67    C    2  dx2y2  Ryd( 3d)     0.00061       2.25273
    68    C    2  dx2y2  Ryd( 4d)     0.00013       2.60033
    69    C    2  dz2    Ryd( 3d)     0.00044       1.12749
    70    C    2  dz2    Ryd( 4d)     0.00011       3.17019
    71    C    2  f(0)   Ryd( 4f)     0.00163       2.25290
    72    C    2  f(0)   Ryd( 5f)     0.00001       3.10484
    73    C    2  f(C1)  Ryd( 4f)     0.00044       2.99911
    74    C    2  f(C1)  Ryd( 5f)     0.00003       3.61125
    75    C    2  f(S1)  Ryd( 4f)     0.00047       2.72383
    76    C    2  f(S1)  Ryd( 5f)     0.00004       3.43987
    77    C    2  f(C2)  Ryd( 4f)     0.00038       2.62607
    78    C    2  f(C2)  Ryd( 5f)     0.00002       3.36506
    79    C    2  f(S2)  Ryd( 4f)     0.00016       2.62469
    80    C    2  f(S2)  Ryd( 5f)     0.00002       3.32671
    81    C    2  f(C3)  Ryd( 5f)     0.00059       4.36216
    82    C    2  f(C3)  Ryd( 4f)     0.00009       3.95200
    83    C    2  f(S3)  Ryd( 5f)     0.00015       5.26447
    84    C    2  f(S3)  Ryd( 4f)     0.00017       4.00846
 
    85    C    3  S      Cor( 1S)     1.99908     -10.42216
    86    C    3  S      Val( 2S)     0.95137      -0.22973
    87    C    3  S      Ryd( 3S)     0.00426       1.68687
    88    C    3  S      Ryd( 5S)     0.00018       2.91493
    89    C    3  S      Ryd( 4S)     0.00002       2.37140
    90    C    3  px     Val( 2p)     1.16128      -0.12747
    91    C    3  px     Ryd( 4p)     0.00588       1.69317
    92    C    3  px     Ryd( 5p)     0.00055       2.69183
    93    C    3  px     Ryd( 3p)     0.00014       0.99599
    94    C    3  py     Val( 2p)     1.11718      -0.12099
    95    C    3  py     Ryd( 4p)     0.01254       1.38430
    96    C    3  py     Ryd( 5p)     0.00055       2.62626
    97    C    3  py     Ryd( 3p)     0.00004       1.14774
    98    C    3  pz     Val( 2p)     0.92142      -0.15528
    99    C    3  pz     Ryd( 4p)     0.00134       0.75249
   100    C    3  pz     Ryd( 5p)     0.00052       2.05213
   101    C    3  pz     Ryd( 3p)     0.00007       0.64315
   102    C    3  dxy    Ryd( 3d)     0.00240       1.78716
   103    C    3  dxy    Ryd( 5d)     0.00046       3.75256
   104    C    3  dxy    Ryd( 4d)     0.00011       3.62527
   105    C    3  dxz    Ryd( 3d)     0.00184       1.05841
   106    C    3  dxz    Ryd( 5d)     0.00039       3.19281
   107    C    3  dxz    Ryd( 4d)     0.00017       2.10819
   108    C    3  dyz    Ryd( 3d)     0.00053       1.02128
   109    C    3  dyz    Ryd( 5d)     0.00025       3.24833
   110    C    3  dyz    Ryd( 4d)     0.00008       1.77200
   111    C    3  dx2y2  Ryd( 4d)     0.00263       3.35310
   112    C    3  dx2y2  Ryd( 5d)     0.00084       3.69669
   113    C    3  dx2y2  Ryd( 3d)     0.00009       2.84793
   114    C    3  dz2    Ryd( 3d)     0.00125       1.13000
   115    C    3  dz2    Ryd( 5d)     0.00043       4.09822
   116    C    3  dz2    Ryd( 4d)     0.00008       3.81443
   117    C    3  f(0)   Ryd( 4f)     0.00011       1.33060
   118    C    3  f(0)   Ryd( 5f)     0.00016       3.47778
   119    C    3  f(C1)  Ryd( 4f)     0.00134       1.77215
   120    C    3  f(C1)  Ryd( 5f)     0.00012       3.64599
   121    C    3  f(S1)  Ryd( 4f)     0.00062       1.63070
   122    C    3  f(S1)  Ryd( 5f)     0.00024       3.61277
   123    C    3  f(C2)  Ryd( 4f)     0.00044       1.34716
   124    C    3  f(C2)  Ryd( 5f)     0.00005       3.52596
   125    C    3  f(S2)  Ryd( 4f)     0.00105       1.39147
   126    C    3  f(S2)  Ryd( 5f)     0.00018       3.59216
   127    C    3  f(C3)  Ryd( 4f)     0.00264       1.70484
   128    C    3  f(C3)  Ryd( 5f)     0.00016       4.23716
   129    C    3  f(S3)  Ryd( 4f)     0.00065       2.53752
   130    C    3  f(S3)  Ryd( 5f)     0.00020       3.96276
 
   131    C    4  S      Cor( 1S)     1.99857     -10.45743
   132    C    4  S      Val( 2S)     0.96327      -0.25215
   133    C    4  S      Ryd( 3S)     0.00268       1.61752
   134    C    4  S      Ryd( 5S)     0.00016       3.00503
   135    C    4  S      Ryd( 4S)     0.00003       2.56154
   136    C    4  px     Val( 2p)     1.07546      -0.18857
   137    C    4  px     Ryd( 4p)     0.00710       1.93421
   138    C    4  px     Ryd( 5p)     0.00009       3.34383
   139    C    4  px     Ryd( 3p)     0.00006       0.85279
   140    C    4  py     Val( 2p)     1.10636      -0.15369
   141    C    4  py     Ryd( 4p)     0.00608       1.89140
   142    C    4  py     Ryd( 5p)     0.00008       2.53903
   143    C    4  py     Ryd( 3p)     0.00005       1.04831
   144    C    4  pz     Val( 2p)     1.11733      -0.19798
   145    C    4  pz     Ryd( 4p)     0.00164       0.83190
   146    C    4  pz     Ryd( 5p)     0.00009       2.18073
   147    C    4  pz     Ryd( 3p)     0.00005       0.59885
   148    C    4  dxy    Ryd( 3d)     0.00072       3.04130
   149    C    4  dxy    Ryd( 4d)     0.00048       3.65000
   150    C    4  dxy    Ryd( 5d)     0.00003       5.14437
   151    C    4  dxz    Ryd( 3d)     0.00056       1.28200
   152    C    4  dxz    Ryd( 5d)     0.00024       2.79779
   153    C    4  dxz    Ryd( 4d)     0.00004       2.61402
   154    C    4  dyz    Ryd( 3d)     0.00045       1.22395
   155    C    4  dyz    Ryd( 5d)     0.00011       2.89322
   156    C    4  dyz    Ryd( 4d)     0.00003       2.84533
   157    C    4  dx2y2  Ryd( 3d)     0.00173       3.15468
   158    C    4  dx2y2  Ryd( 4d)     0.00037       3.77522
   159    C    4  dx2y2  Ryd( 5d)     0.00005       5.12458
   160    C    4  dz2    Ryd( 3d)     0.00129       1.23523
   161    C    4  dz2    Ryd( 4d)     0.00018       3.99016
   162    C    4  dz2    Ryd( 5d)     0.00004       4.40157
   163    C    4  f(0)   Ryd( 4f)     0.00076       1.53614
   164    C    4  f(0)   Ryd( 5f)     0.00014       3.44182
   165    C    4  f(C1)  Ryd( 4f)     0.00086       1.81445
   166    C    4  f(C1)  Ryd( 5f)     0.00016       3.50659
   167    C    4  f(S1)  Ryd( 4f)     0.00087       1.92121
   168    C    4  f(S1)  Ryd( 5f)     0.00015       3.56635
   169    C    4  f(C2)  Ryd( 4f)     0.00032       1.43060
   170    C    4  f(C2)  Ryd( 5f)     0.00003       3.51444
   171    C    4  f(S2)  Ryd( 4f)     0.00049       1.42525
   172    C    4  f(S2)  Ryd( 5f)     0.00004       3.54090
   173    C    4  f(C3)  Ryd( 4f)     0.00127       2.24968
   174    C    4  f(C3)  Ryd( 5f)     0.00024       4.20868
   175    C    4  f(S3)  Ryd( 4f)     0.00076       2.81166
   176    C    4  f(S3)  Ryd( 5f)     0.00012       4.04313
 
   177    C    5  S      Cor( 1S)     1.99900     -10.42750
   178    C    5  S      Val( 2S)     0.93594      -0.21192
   179    C    5  S      Ryd( 3S)     0.00136       1.89247
   180    C    5  S      Ryd( 5S)     0.00014       2.69025
   181    C    5  S      Ryd( 4S)     0.00003       2.01556
   182    C    5  px     Val( 2p)     1.04383      -0.10062
   183    C    5  px     Ryd( 4p)     0.00337       2.02353
   184    C    5  px     Ryd( 5p)     0.00015       2.26238
   185    C    5  px     Ryd( 3p)     0.00005       1.43065
   186    C    5  py     Val( 2p)     1.20168      -0.13570
   187    C    5  py     Ryd( 4p)     0.00543       1.88077
   188    C    5  py     Ryd( 5p)     0.00012       2.54550
   189    C    5  py     Ryd( 3p)     0.00006       1.30765
   190    C    5  pz     Val( 2p)     0.91154      -0.15711
   191    C    5  pz     Ryd( 4p)     0.00141       0.96430
   192    C    5  pz     Ryd( 5p)     0.00011       1.75642
   193    C    5  pz     Ryd( 3p)     0.00010       0.82337
   194    C    5  dxy    Ryd( 4d)     0.00219       3.92859
   195    C    5  dxy    Ryd( 5d)     0.00031       4.19113
   196    C    5  dxy    Ryd( 3d)     0.00007       3.20044
   197    C    5  dxz    Ryd( 3d)     0.00070       1.27472
   198    C    5  dxz    Ryd( 5d)     0.00011       3.12039
   199    C    5  dxz    Ryd( 4d)     0.00002       2.36075
   200    C    5  dyz    Ryd( 3d)     0.00037       1.31772
   201    C    5  dyz    Ryd( 5d)     0.00009       3.13932
   202    C    5  dyz    Ryd( 4d)     0.00004       2.02058
   203    C    5  dx2y2  Ryd( 3d)     0.00136       2.42654
   204    C    5  dx2y2  Ryd( 4d)     0.00014       3.93877
   205    C    5  dx2y2  Ryd( 5d)     0.00009       4.80667
   206    C    5  dz2    Ryd( 3d)     0.00100       1.44399
   207    C    5  dz2    Ryd( 4d)     0.00013       3.98320
   208    C    5  dz2    Ryd( 5d)     0.00006       4.64770
   209    C    5  f(0)   Ryd( 4f)     0.00022       1.39216
   210    C    5  f(0)   Ryd( 5f)     0.00014       3.54604
   211    C    5  f(C1)  Ryd( 4f)     0.00044       2.15524
   212    C    5  f(C1)  Ryd( 5f)     0.00026       3.71783
   213    C    5  f(S1)  Ryd( 4f)     0.00059       1.75588
   214    C    5  f(S1)  Ryd( 5f)     0.00015       3.67745
   215    C    5  f(C2)  Ryd( 4f)     0.00047       1.37955
   216    C    5  f(C2)  Ryd( 5f)     0.00005       3.62373
   217    C    5  f(S2)  Ryd( 4f)     0.00044       1.37045
   218    C    5  f(S2)  Ryd( 5f)     0.00003       3.60678
   219    C    5  f(C3)  Ryd( 4f)     0.00124       2.15209
   220    C    5  f(C3)  Ryd( 5f)     0.00019       4.55581
   221    C    5  f(S3)  Ryd( 4f)     0.00062       3.40475
   222    C    5  f(S3)  Ryd( 5f)     0.00019       4.25275
 
   223    C    6  S      Cor( 1S)     1.99883     -10.40664
   224    C    6  S      Val( 2S)     0.88836      -0.15035
   225    C    6  S      Ryd( 3S)     0.00112       2.07507
   226    C    6  S      Ryd( 4S)     0.00008       2.81783
   227    C    6  S      Ryd( 5S)     0.00003       3.39695
   228    C    6  px     Val( 2p)     1.10520      -0.13672
   229    C    6  px     Ryd( 5p)     0.00569       2.32408
   230    C    6  px     Ryd( 4p)     0.00007       2.13469
   231    C    6  px     Ryd( 3p)     0.00005       1.05447
   232    C    6  py     Val( 2p)     1.13173      -0.14179
   233    C    6  py     Ryd( 5p)     0.00540       2.27700
   234    C    6  py     Ryd( 4p)     0.00011       2.16979
   235    C    6  py     Ryd( 3p)     0.00003       1.32106
   236    C    6  pz     Val( 2p)     1.06611      -0.16812
   237    C    6  pz     Ryd( 4p)     0.00110       0.98524
   238    C    6  pz     Ryd( 5p)     0.00015       1.72268
   239    C    6  pz     Ryd( 3p)     0.00002       0.75424
   240    C    6  dxy    Ryd( 3d)     0.00206       3.15889
   241    C    6  dxy    Ryd( 4d)     0.00021       3.70772
   242    C    6  dxy    Ryd( 5d)     0.00004       5.29737
   243    C    6  dxz    Ryd( 3d)     0.00028       1.40828
   244    C    6  dxz    Ryd( 5d)     0.00013       2.79587
   245    C    6  dxz    Ryd( 4d)     0.00006       2.73847
   246    C    6  dyz    Ryd( 3d)     0.00029       1.39087
   247    C    6  dyz    Ryd( 5d)     0.00006       2.75878
   248    C    6  dyz    Ryd( 4d)     0.00002       2.68642
   249    C    6  dx2y2  Ryd( 3d)     0.00106       3.00750
   250    C    6  dx2y2  Ryd( 4d)     0.00049       3.42743
   251    C    6  dx2y2  Ryd( 5d)     0.00008       6.36131
   252    C    6  dz2    Ryd( 3d)     0.00072       1.57830
   253    C    6  dz2    Ryd( 5d)     0.00018       4.06257
   254    C    6  dz2    Ryd( 4d)     0.00007       4.05091
   255    C    6  f(0)   Ryd( 4f)     0.00045       1.57087
   256    C    6  f(0)   Ryd( 5f)     0.00024       3.46292
   257    C    6  f(C1)  Ryd( 4f)     0.00049       1.99999
   258    C    6  f(C1)  Ryd( 5f)     0.00044       3.61062
   259    C    6  f(S1)  Ryd( 4f)     0.00063       1.99219
   260    C    6  f(S1)  Ryd( 5f)     0.00033       3.60343
   261    C    6  f(C2)  Ryd( 4f)     0.00071       1.45522
   262    C    6  f(C2)  Ryd( 5f)     0.00005       3.49484
   263    C    6  f(S2)  Ryd( 4f)     0.00063       1.50749
   264    C    6  f(S2)  Ryd( 5f)     0.00004       3.40404
   265    C    6  f(C3)  Ryd( 4f)     0.00183       2.62403
   266    C    6  f(C3)  Ryd( 5f)     0.00028       4.28630
   267    C    6  f(S3)  Ryd( 4f)     0.00112       3.04665
   268    C    6  f(S3)  Ryd( 5f)     0.00012       4.58334
 
   269    C    7  S      Cor( 1S)     1.99908     -10.55697
   270    C    7  S      Val( 2S)     0.77806      -0.12151
   271    C    7  S      Ryd( 3S)     0.00363       2.00655
   272    C    7  S      Ryd( 4S)     0.00012       2.16885
   273    C    7  S      Ryd( 5S)     0.00007       2.41423
   274    C    7  px     Val( 2p)     0.86481      -0.05202
   275    C    7  px     Ryd( 5p)     0.01183       1.57859
   276    C    7  px     Ryd( 3p)     0.00022       1.26921
   277    C    7  px     Ryd( 4p)     0.00004       1.40981
   278    C    7  py     Val( 2p)     0.77993      -0.06180
   279    C    7  py     Ryd( 5p)     0.00663       1.64652
   280    C    7  py     Ryd( 3p)     0.00012       1.37572
   281    C    7  py     Ryd( 4p)     0.00004       1.52668
   282    C    7  pz     Val( 2p)     0.75798      -0.14507
   283    C    7  pz     Ryd( 5p)     0.00070       1.13956
   284    C    7  pz     Ryd( 3p)     0.00009       0.79723
   285    C    7  pz     Ryd( 4p)     0.00002       0.93919
   286    C    7  dxy    Ryd( 4d)     0.00205       3.10907
   287    C    7  dxy    Ryd( 3d)     0.00017       2.59571
   288    C    7  dxy    Ryd( 5d)     0.00008       3.74913
   289    C    7  dxz    Ryd( 4d)     0.00137       2.35809
   290    C    7  dxz    Ryd( 3d)     0.00006       2.21096
   291    C    7  dxz    Ryd( 5d)     0.00005       2.43613
   292    C    7  dyz    Ryd( 4d)     0.00166       2.22051
   293    C    7  dyz    Ryd( 3d)     0.00003       2.16313
   294    C    7  dyz    Ryd( 5d)     0.00006       2.39962
   295    C    7  dx2y2  Ryd( 4d)     0.00084       3.14362
   296    C    7  dx2y2  Ryd( 3d)     0.00035       3.04306
   297    C    7  dx2y2  Ryd( 5d)     0.00006       3.37979
   298    C    7  dz2    Ryd( 3d)     0.00045       3.00773
   299    C    7  dz2    Ryd( 4d)     0.00057       3.07793
   300    C    7  dz2    Ryd( 5d)     0.00010       3.62290
   301    C    7  f(0)   Ryd( 5f)     0.00011       3.46330
   302    C    7  f(0)   Ryd( 4f)     0.00003       2.52658
   303    C    7  f(C1)  Ryd( 5f)     0.00013       3.67886
   304    C    7  f(C1)  Ryd( 4f)     0.00004       3.53357
   305    C    7  f(S1)  Ryd( 5f)     0.00008       3.67401
   306    C    7  f(S1)  Ryd( 4f)     0.00003       3.15787
   307    C    7  f(C2)  Ryd( 5f)     0.00003       3.58886
   308    C    7  f(C2)  Ryd( 4f)     0.00003       2.98826
   309    C    7  f(S2)  Ryd( 5f)     0.00000       3.38988
   310    C    7  f(S2)  Ryd( 4f)     0.00006       2.68011
   311    C    7  f(C3)  Ryd( 4f)     0.00008       4.52158
   312    C    7  f(C3)  Ryd( 5f)     0.00004       4.70990
   313    C    7  f(S3)  Ryd( 4f)     0.00006       4.55136
   314    C    7  f(S3)  Ryd( 5f)     0.00003       7.67749
 
   315    O    8  S      Cor( 1S)     1.99979     -19.34434
   316    O    8  S      Val( 2S)     1.70693      -1.01898
   317    O    8  S      Ryd( 4S)     0.00054       2.82100
   318    O    8  S      Ryd( 3S)     0.00018       1.94868
   319    O    8  S      Ryd( 5S)     0.00001       8.39526
   320    O    8  px     Val( 2p)     1.56677      -0.34865
   321    O    8  px     Ryd( 4p)     0.00051       1.64001
   322    O    8  px     Ryd( 3p)     0.00013       0.85791
   323    O    8  px     Ryd( 5p)     0.00006       5.17974
   324    O    8  py     Val( 2p)     1.84727      -0.36189
   325    O    8  py     Ryd( 4p)     0.00176       1.24602
   326    O    8  py     Ryd( 3p)     0.00007       0.83716
   327    O    8  py     Ryd( 5p)     0.00001       4.52096
   328    O    8  pz     Val( 2p)     1.44707      -0.30606
   329    O    8  pz     Ryd( 4p)     0.00052       1.06435
   330    O    8  pz     Ryd( 3p)     0.00003       0.61964
   331    O    8  pz     Ryd( 5p)     0.00001       4.04965
   332    O    8  dxy    Ryd( 3d)     0.00629       1.86906
   333    O    8  dxy    Ryd( 4d)     0.00008       2.23037
   334    O    8  dxy    Ryd( 5d)     0.00004       6.71773
   335    O    8  dxz    Ryd( 3d)     0.00603       1.56770
   336    O    8  dxz    Ryd( 4d)     0.00003       1.57212
   337    O    8  dxz    Ryd( 5d)     0.00002       6.57992
   338    O    8  dyz    Ryd( 3d)     0.00076       1.43366
   339    O    8  dyz    Ryd( 4d)     0.00002       1.48953
   340    O    8  dyz    Ryd( 5d)     0.00001       6.56931
   341    O    8  dx2y2  Ryd( 3d)     0.00703       2.02279
   342    O    8  dx2y2  Ryd( 4d)     0.00010       2.73927
   343    O    8  dx2y2  Ryd( 5d)     0.00004       6.75575
   344    O    8  dz2    Ryd( 3d)     0.00278       1.64523
   345    O    8  dz2    Ryd( 4d)     0.00010       2.32520
   346    O    8  dz2    Ryd( 5d)     0.00001       6.65859
   347    O    8  f(0)   Ryd( 4f)     0.00012       3.18796
   348    O    8  f(0)   Ryd( 5f)     0.00001       5.44268
   349    O    8  f(C1)  Ryd( 4f)     0.00015       3.80299
   350    O    8  f(C1)  Ryd( 5f)     0.00001       5.76440
   351    O    8  f(S1)  Ryd( 4f)     0.00004       3.18331
   352    O    8  f(S1)  Ryd( 5f)     0.00001       5.50917
   353    O    8  f(C2)  Ryd( 4f)     0.00018       3.21100
   354    O    8  f(C2)  Ryd( 5f)     0.00000       5.58250
   355    O    8  f(S2)  Ryd( 4f)     0.00012       3.17081
   356    O    8  f(S2)  Ryd( 5f)     0.00002       5.62204
   357    O    8  f(C3)  Ryd( 4f)     0.00044       3.80187
   358    O    8  f(C3)  Ryd( 5f)     0.00002       5.93486
   359    O    8  f(S3)  Ryd( 4f)     0.00032       3.93730
   360    O    8  f(S3)  Ryd( 5f)     0.00002       5.98207
 
   361    O    9  S      Cor( 1S)     1.99978     -19.47367
   362    O    9  S      Val( 2S)     1.67660      -1.04911
   363    O    9  S      Ryd( 3S)     0.00033       1.74321
   364    O    9  S      Ryd( 4S)     0.00008       2.60820
   365    O    9  S      Ryd( 5S)     0.00001       9.19726
   366    O    9  px     Val( 2p)     1.68920      -0.41016
   367    O    9  px     Ryd( 4p)     0.00046       1.18633
   368    O    9  px     Ryd( 3p)     0.00010       1.17366
   369    O    9  px     Ryd( 5p)     0.00006       4.72545
   370    O    9  py     Val( 2p)     1.47088      -0.38059
   371    O    9  py     Ryd( 4p)     0.00097       1.14504
   372    O    9  py     Ryd( 3p)     0.00008       0.82749
   373    O    9  py     Ryd( 5p)     0.00003       4.97638
   374    O    9  pz     Val( 2p)     1.84218      -0.42670
   375    O    9  pz     Ryd( 4p)     0.00104       0.88790
   376    O    9  pz     Ryd( 3p)     0.00001       0.64535
   377    O    9  pz     Ryd( 5p)     0.00000       3.99825
   378    O    9  dxy    Ryd( 3d)     0.00325       1.68385
   379    O    9  dxy    Ryd( 4d)     0.00007       2.20606
   380    O    9  dxy    Ryd( 5d)     0.00006       6.71761
   381    O    9  dxz    Ryd( 3d)     0.00288       1.16018
   382    O    9  dxz    Ryd( 4d)     0.00003       1.89788
   383    O    9  dxz    Ryd( 5d)     0.00001       6.37328
   384    O    9  dyz    Ryd( 3d)     0.00196       1.36931
   385    O    9  dyz    Ryd( 4d)     0.00006       1.79116
   386    O    9  dyz    Ryd( 5d)     0.00003       6.44544
   387    O    9  dx2y2  Ryd( 3d)     0.00639       2.07005
   388    O    9  dx2y2  Ryd( 4d)     0.00013       2.42197
   389    O    9  dx2y2  Ryd( 5d)     0.00004       6.83084
   390    O    9  dz2    Ryd( 3d)     0.00302       1.52799
   391    O    9  dz2    Ryd( 4d)     0.00011       2.37671
   392    O    9  dz2    Ryd( 5d)     0.00001       6.64319
   393    O    9  f(0)   Ryd( 4f)     0.00050       2.79127
   394    O    9  f(0)   Ryd( 5f)     0.00001       5.91716
   395    O    9  f(C1)  Ryd( 4f)     0.00014       3.16165
   396    O    9  f(C1)  Ryd( 5f)     0.00001       6.18182
   397    O    9  f(S1)  Ryd( 4f)     0.00022       3.57989
   398    O    9  f(S1)  Ryd( 5f)     0.00001       6.13366
   399    O    9  f(C2)  Ryd( 4f)     0.00004       2.91313
   400    O    9  f(C2)  Ryd( 5f)     0.00001       5.95343
   401    O    9  f(S2)  Ryd( 4f)     0.00007       2.80416
   402    O    9  f(S2)  Ryd( 5f)     0.00001       6.06863
   403    O    9  f(C3)  Ryd( 4f)     0.00004       3.68767
   404    O    9  f(C3)  Ryd( 5f)     0.00002       6.38531
   405    O    9  f(S3)  Ryd( 4f)     0.00013       4.57486
   406    O    9  f(S3)  Ryd( 5f)     0.00006       6.56594
 
   407    S   10  S      Cor( 1S)     2.00000     -88.87911
   408    S   10  S      Cor( 2S)     1.99911      -9.48209
   409    S   10  S      Val( 3S)     1.09630      -0.59534
   410    S   10  S      Ryd( 4S)     0.00511       1.34896
   411    S   10  S      Ryd( 6S)     0.00015       4.21648
   412    S   10  S      Ryd( 5S)     0.00011       3.48228
   413    S   10  px     Cor( 2p)     1.99988      -6.36048
   414    S   10  px     Val( 3p)     0.87644      -0.17498
   415    S   10  px     Ryd( 5p)     0.00643       1.44044
   416    S   10  px     Ryd( 4p)     0.00013       0.71504
   417    S   10  px     Ryd( 6p)     0.00005       2.07846
   418    S   10  py     Cor( 2p)     1.99986      -6.35937
   419    S   10  py     Val( 3p)     0.81980      -0.17331
   420    S   10  py     Ryd( 5p)     0.00985       1.41856
   421    S   10  py     Ryd( 4p)     0.00014       0.80228
   422    S   10  py     Ryd( 6p)     0.00007       2.20205
   423    S   10  pz     Cor( 2p)     1.99989      -6.36213
   424    S   10  pz     Val( 3p)     0.91663      -0.22969
   425    S   10  pz     Ryd( 5p)     0.00528       1.28740
   426    S   10  pz     Ryd( 4p)     0.00011       0.71074
   427    S   10  pz     Ryd( 6p)     0.00004       2.05855
   428    S   10  dxy    Ryd( 4d)     0.03040       1.11044
   429    S   10  dxy    Ryd( 3d)     0.00052       1.02700
   430    S   10  dxy    Ryd( 5d)     0.00008       3.14139
   431    S   10  dxz    Ryd( 4d)     0.02137       0.88340
   432    S   10  dxz    Ryd( 3d)     0.00044       0.72250
   433    S   10  dxz    Ryd( 5d)     0.00007       2.74745
   434    S   10  dyz    Ryd( 4d)     0.03056       1.02587
   435    S   10  dyz    Ryd( 3d)     0.00075       0.86219
   436    S   10  dyz    Ryd( 5d)     0.00008       2.84227
   437    S   10  dx2y2  Ryd( 4d)     0.03392       1.07550
   438    S   10  dx2y2  Ryd( 3d)     0.00063       0.92351
   439    S   10  dx2y2  Ryd( 5d)     0.00005       3.27099
   440    S   10  dz2    Ryd( 4d)     0.03395       0.94415
   441    S   10  dz2    Ryd( 3d)     0.00096       0.76702
   442    S   10  dz2    Ryd( 5d)     0.00006       2.92846
   443    S   10  f(0)   Ryd( 5f)     0.00034       2.62209
   444    S   10  f(0)   Ryd( 4f)     0.00005       2.33526
   445    S   10  f(C1)  Ryd( 4f)     0.00020       2.68542
   446    S   10  f(C1)  Ryd( 5f)     0.00004       2.69337
   447    S   10  f(S1)  Ryd( 5f)     0.00041       2.90999
   448    S   10  f(S1)  Ryd( 4f)     0.00007       2.87181
   449    S   10  f(C2)  Ryd( 4f)     0.00018       2.67511
   450    S   10  f(C2)  Ryd( 5f)     0.00003       2.98720
   451    S   10  f(S2)  Ryd( 5f)     0.00061       2.76994
   452    S   10  f(S2)  Ryd( 4f)     0.00002       2.66837
   453    S   10  f(C3)  Ryd( 5f)     0.00042       3.07527
   454    S   10  f(C3)  Ryd( 4f)     0.00003       3.05986
   455    S   10  f(S3)  Ryd( 4f)     0.00033       3.22011
   456    S   10  f(S3)  Ryd( 5f)     0.00008       3.80639
 
   457    O   11  S      Cor( 1S)     1.99985     -19.40436
   458    O   11  S      Val( 2S)     1.82191      -1.08839
   459    O   11  S      Ryd( 3S)     0.00023       2.12608
   460    O   11  S      Ryd( 5S)     0.00001       9.17575
   461    O   11  S      Ryd( 4S)     0.00001       3.53473
   462    O   11  px     Val( 2p)     1.55982      -0.36597
   463    O   11  px     Ryd( 4p)     0.00079       0.99082
   464    O   11  px     Ryd( 3p)     0.00016       0.67945
   465    O   11  px     Ryd( 5p)     0.00005       4.50201
   466    O   11  py     Val( 2p)     1.74535      -0.37827
   467    O   11  py     Ryd( 4p)     0.00076       1.03853
   468    O   11  py     Ryd( 3p)     0.00014       0.64171
   469    O   11  py     Ryd( 5p)     0.00003       4.40921
   470    O   11  pz     Val( 2p)     1.76918      -0.35890
   471    O   11  pz     Ryd( 4p)     0.00162       0.99659
[...]
 082931,0.00068108,-0.00075378,0.00185330,0.00199090,0.00692688,0.00598
 041,-0.00187018,-0.00160324,0.01911342,-0.00642080,-0.07531632,0.00114
 296,-0.00304444,-0.00063434,0.00000399,0.00062182,0.00781002,0.0001241
 5,-0.00219127,0.00112262,-0.00056317,0.00109091,-0.00044703,0.00037024
 ,0.00104385,-0.00049939,0.06809367,-0.06274176,0.53801526,-0.00032661,
 0.00065770,0.00003353,0.00108427,0.00127211,0.00006597,-0.00128661,-0.
 00082455,-0.00004357,0.00383743,0.02494112,-0.01003631,-0.00547572,-0.
 00234913,0.00059494,-0.00030341,0.00297816,0.00092330,-0.00059794,-0.0
 0290619,0.00033981,-0.00052259,0.00143971,0.00005047,0.00068882,0.0012
 5532,-0.00017258,-0.08865154,0.03993602,-0.01527615,0.06697383,0.00010
 777,-0.00009071,0.00013966,0.00095006,0.00157796,-0.00103858,-0.001422
 04,-0.00403858,0.00038961,-0.00461988,-0.01563506,0.01040771,0.0072867
 1,0.00078121,-0.00070088,-0.00030530,-0.00167977,-0.00070858,-0.000225
 03,0.00177082,-0.00013776,0.00096325,-0.00125612,-0.00017953,0.0000342
 1,-0.00067336,-0.00001143,0.02703544,-0.51993752,0.17229605,-0.0410807
 4,0.55347389,-0.00005406,-0.00070592,0.00003225,-0.00086306,-0.0003188
 1,0.00003311,0.00151105,0.00093413,0.00012702,0.00447817,-0.00154205,0
 .01056029,-0.00124609,0.00115501,0.00152486,0.00075881,-0.00001614,-0.
 00130745,0.00008200,0.00048551,-0.00040352,-0.00002118,-0.00013858,0.0
 0018246,-0.00017379,-0.00022798,0.00018684,-0.01085855,0.17673970,-0.1
 5748519,0.01840077,-0.19958498,0.13859793,-0.00069115,-0.00052714,0.00
 002426,-0.00172435,-0.00161474,0.00172825,-0.00520755,0.00773245,-0.00
 029524,-0.01469047,-0.02741721,-0.00943000,-0.00109586,-0.00151692,0.0
 0012579,0.00029873,0.00111101,0.00073983,-0.00053947,-0.00373464,0.000
 10599,-0.00044880,0.00167067,0.00010688,0.00099579,0.00185772,-0.00017
 958,-0.31854726,-0.24536168,-0.08915059,0.01352160,0.00777115,-0.00489
 689,0.32886648,0.00043193,0.00037308,-0.00022061,0.00051465,-0.0001383
 3,-0.00022772,-0.00224455,0.00046681,0.00047832,0.00408700,0.00262470,
 -0.00047388,-0.00056906,-0.00376330,0.00058935,-0.00015594,0.00287480,
 0.00039359,-0.00157680,-0.00134432,0.00038735,0.00051052,0.00041147,-0
 .00011998,0.00092313,0.00068199,-0.00012149,-0.23199709,-0.33043023,-0
 .08938938,-0.02906852,-0.01123568,-0.01056014,0.27012029,0.33609649,0.
 00043649,0.00061566,-0.00008154,0.00033452,-0.00094421,-0.00113653,-0.
 00135561,-0.00006592,0.00147915,0.00513110,0.00020198,0.01106227,0.000
 84355,-0.00075769,0.00030854,-0.00057203,0.00029250,-0.00023812,-0.000
 22512,0.00023566,-0.00014197,0.00012833,-0.00013112,0.00007219,0.00005
 776,-0.00012750,0.00020154,-0.08964684,-0.09481103,-0.12219519,0.00696
 984,0.01451975,0.01916819,0.10468880,0.10340624,0.09865602,-0.00054179
 ,0.00021589,0.00030627,-0.00067779,0.00033467,-0.00148954,0.00041305,0
 .00192608,0.00039815,0.00169986,0.00320275,0.02264086,-0.00149571,-0.0
 0148428,0.00108108,-0.00070628,0.00030067,-0.00137715,-0.00039910,-0.0
 0153141,-0.00000665,-0.00015723,0.00076531,0.00010179,0.00041066,0.000
 75839,-0.00010761,-0.06870955,0.00277533,0.00678660,0.00934655,0.00098
 752,-0.00731117,0.00042176,-0.01129396,-0.02738166,0.58355280,0.000171
 59,-0.00012209,-0.00011129,0.00034597,0.00032552,0.00038774,0.00093859
 ,-0.00182620,-0.00075081,0.00190510,0.00594632,-0.00899684,-0.00080052
 ,0.00066994,0.00017571,0.00047310,0.00027678,0.00056189,0.00000867,0.0
 0050622,-0.00006828,0.00006469,-0.00023736,-0.00001376,-0.00010152,-0.
 00025370,0.00009518,0.00184448,-0.06439357,-0.00966933,0.00074847,-0.0
 0659801,0.03507062,-0.00874376,-0.00126950,-0.02189535,0.00660761,0.59
 492617,0.00004313,0.00006803,0.00000586,0.00011922,0.00002504,-0.00001
 874,0.00004431,-0.00082265,-0.00070694,-0.00056040,-0.00021871,-0.0007
 3227,0.00073398,0.00033159,-0.00090378,-0.00003652,-0.00029164,0.00000
 960,-0.00004424,0.00055920,0.00000329,0.00016443,-0.00027883,-0.000017
 07,-0.00005977,-0.00023121,0.00005468,-0.00469266,-0.00541473,-0.16576
 858,-0.00026451,-0.00207607,-0.00568366,0.00191862,0.00169268,-0.00225
 358,0.00934947,-0.01767821,0.38513696,-0.29344361,0.09443987,0.0613136
 0,0.00219505,-0.00086220,0.00090796,0.00172030,0.00010119,0.00150265,0
 .00065929,-0.00063062,-0.00027502,-0.00154839,-0.00355349,0.00204156,-
 0.01699992,0.00935964,0.00553272,-0.00281726,0.00162130,-0.00033152,0.
 00199065,0.00125523,-0.00058484,0.00060102,0.00001331,-0.00012599,-0.0
 0032234,-0.00005531,-0.00020563,0.00000084,0.00006916,-0.00002495,-0.0
 0001683,0.00011980,0.00001032,0.00011224,-0.00004316,0.00000003,0.3082
 9480,0.09638530,-0.09777201,-0.02321503,0.02719738,-0.00483152,-0.0067
 1516,0.00077244,-0.00555675,0.00012658,-0.00089013,-0.00122810,0.00023
 960,-0.00357751,-0.00271006,0.00099885,-0.01730012,0.01252745,0.004290
 53,-0.00271745,0.00048390,0.00061382,0.00121415,-0.00178178,-0.0002840
 4,0.00143400,0.00066954,-0.00037587,0.00017343,-0.00050437,-0.00004337
 ,0.00009460,0.00022134,-0.00006223,-0.00003928,0.00019101,0.00004568,-
 0.00005536,0.00002267,0.00000006,-0.10236495,0.09881699,0.06145609,-0.
 02274895,-0.05862621,0.00028669,0.00054149,0.00556606,0.00152567,0.000
 34445,0.00727219,-0.00032976,0.00025725,-0.00051732,0.00205770,0.00094
 884,0.00580027,0.00583116,-0.00251937,0.00402053,-0.00023251,-0.000512
 46,-0.00395722,-0.00061467,-0.00029916,-0.00010960,-0.00013902,-0.0000
 0271,0.00015515,0.00003264,-0.00005947,-0.00092048,-0.00009095,0.00008
 600,0.00001972,-0.00016564,-0.00007967,0.00004136,0.00016572,-0.000064
 47,-0.00004227,-0.06876355,0.02443749,0.04535764,0.00830707,0.00527435
 ,-0.00126080,-0.21741202,-0.13594314,0.04928941,-0.01617564,-0.0190654
 3,0.00573454,-0.00368676,0.00275767,0.00288087,-0.00031086,0.00107488,
 -0.00020322,0.00158427,0.00183741,0.00154523,0.00039941,0.00021076,-0.
 00001651,-0.00002824,-0.00005713,0.00001886,-0.00000892,0.00017355,-0.
 00003874,0.00070502,-0.00149746,0.00010101,-0.00006840,0.00049110,-0.0
 0010810,-0.00080100,-0.00012851,-0.00005129,-0.00020406,0.00017618,0.0
 0005670,0.00024005,-0.00047634,-0.00114934,0.22676974,-0.02433820,-0.0
 1450980,0.00680283,-0.13585517,-0.17481349,0.03873757,0.01031604,0.011
 15349,-0.00289832,0.00275354,0.00047888,-0.00055086,0.00107606,-0.0007
 2612,-0.00026931,0.00223689,-0.00497807,-0.00025615,-0.00166284,0.0004
 6953,0.00039455,0.00038966,-0.00024320,-0.00009167,-0.00000035,-0.0008
 5392,0.00000955,0.00016223,0.00062749,-0.00012863,-0.00005987,-0.00016
 187,0.00006371,0.00041275,0.00007384,0.00002103,0.00003786,-0.00006212
 ,-0.00002751,0.00024269,0.00110944,-0.00021682,0.14510266,0.18191126,-
 0.00054037,-0.00114892,0.00417328,0.04940494,0.03909321,-0.05375415,0.
 00513126,0.00491852,0.00251852,0.00241633,-0.00073734,0.00663786,-0.00
 034735,-0.00021054,-0.00080790,0.00153681,-0.00015064,0.00721124,0.000
 04131,-0.00008856,0.00025802,0.00000152,0.00002904,0.00005118,-0.00002
 976,-0.00000529,-0.00013133,-0.00003622,0.00023440,0.00043107,-0.00003
 595,-0.00009832,-0.00001622,0.00035849,0.00002359,-0.00017367,0.000037
 30,0.00002828,0.00002455,-0.00114626,-0.00000015,-0.00394632,-0.055389
 35,-0.04161162,0.04241568,-0.00438921,0.00183314,0.00294932,0.00098970
 ,0.02720737,0.00019473,-0.06746100,0.05379644,0.00491462,0.00892695,-0
 .02172066,-0.00055369,-0.00364410,-0.00325925,0.00249603,-0.00135878,-
 0.00032623,0.00019686,-0.00042835,0.00022685,-0.00019382,0.00028703,-0
 .00000129,-0.00003571,0.00012346,-0.00007863,-0.00001100,0.00016930,-0
 .00491918,0.00049583,-0.00043050,0.00245916,-0.00046803,0.00003811,0.0
 0089954,-0.00008582,-0.00019178,0.00030456,-0.00011122,0.00001809,0.00
 119641,-0.00013434,0.00074253,-0.00063143,-0.00116607,0.06594012,0.001
 41157,0.00096680,0.00008192,-0.00040142,-0.00334121,0.00056591,0.05189
 225,-0.33575231,-0.00131874,0.00321055,-0.01535665,0.00001645,-0.00295
 523,-0.00055073,0.00114685,-0.00024459,0.00096037,0.00000610,0.0000138
 9,-0.00047019,-0.00006928,-0.00004940,0.00008299,0.00001994,0.00009858
 ,0.00006925,-0.00002021,0.00072767,-0.00237860,-0.00007079,0.00216534,
 0.00059610,-0.00059463,-0.00011435,0.00043211,0.00022115,-0.00007731,-
 0.00001827,0.00002003,-0.00016417,-0.00016797,0.00002382,0.00007642,0.
 00056469,-0.00032402,-0.05583966,0.35485966,0.00318458,-0.00047339,0.0
 0674237,0.00101052,-0.00707684,0.00544342,0.00499293,0.00003292,-0.043
 54748,-0.00122169,0.00605215,0.00456114,0.00235514,0.00090346,0.005928
 16,0.00032182,0.00013999,-0.00085541,-0.00016939,-0.00008740,-0.001116
 91,-0.00004779,0.00000162,0.00015275,-0.00001715,0.00002546,0.00007479
 ,-0.00023082,0.00069596,-0.00295188,-0.00037481,0.00005985,-0.00057673
 ,-0.00063080,-0.00022187,0.00029683,0.00079250,-0.00011896,0.00002441,
 -0.00010107,-0.00035029,-0.00036172,-0.00122669,0.00003041,-0.00380125
 ,-0.00835422,0.00022120,0.03023675,-0.00317755,0.00304913,0.00219236,-
 0.00017163,0.00073378,-0.00015239,0.00070713,0.00255447,0.00118534,0.0
 0863675,0.00249787,-0.00121611,-0.22413445,-0.13787778,0.04339722,-0.0
 1445532,-0.01762750,0.00462235,-0.00188821,-0.00191126,-0.00035048,0.0
 0103253,0.00010186,-0.00013642,0.00101522,-0.00014979,-0.00025997,0.00
 138596,0.00183494,-0.00022632,-0.00025611,-0.00037734,-0.00012250,-0.0
 0206226,-0.00032299,0.00008157,-0.00022030,-0.00013875,-0.00005891,-0.
 00063826,-0.00097253,0.00021159,-0.00006919,-0.00008438,-0.00021173,0.
 00053673,0.00034883,-0.00009828,0.23306772,0.00318893,-0.00036659,-0.0
 0088075,0.00086472,-0.00040397,-0.00020602,0.00209519,-0.00491641,-0.0
 0050108,-0.02171324,-0.01389594,0.00532939,-0.13844932,-0.17110540,0.0
 3224531,0.00822929,0.01169488,-0.00208203,0.00074143,0.00194337,-0.000
 16787,-0.00080491,-0.00013776,0.00021756,0.00067859,-0.00386440,-0.000
 12769,-0.00321979,-0.00335910,-0.00005924,0.00043539,0.00083763,-0.000
 19653,0.00001434,0.00226614,0.00018001,0.00031724,-0.00007061,0.000079
 13,0.00058037,0.00062526,-0.00017352,-0.00006001,0.00002291,0.00003580
 ,-0.00117053,-0.00052271,0.00031120,0.14818810,0.18120240,0.00259898,-
 0.00076048,0.00628044,-0.00022432,-0.00026426,-0.00097525,0.00143472,-
 0.00019293,0.00649429,-0.00081997,-0.00042244,0.00470926,0.04221513,0.
 03084210,-0.05166386,0.00483536,0.00467883,0.00328091,-0.00066590,0.00
 036301,-0.00414157,-0.00000273,-0.00004794,0.00066542,-0.00021306,0.00
 005171,0.00024555,-0.00019251,-0.00033543,-0.00287101,-0.00041152,0.00
 045722,0.00026207,-0.00033081,-0.00050818,-0.00060211,0.00060928,-0.00
 039954,0.00005826,0.00022562,0.00026013,0.00012928,-0.00025689,-0.0000
 0384,-0.00100218,-0.00006552,-0.00007747,0.00021039,-0.04856607,-0.033
 76328,0.03951674,0.00063938,-0.00103463,-0.00000996,-0.00038240,-0.000
 23253,-0.00000065,-0.00013677,0.00016418,0.00004855,0.00020732,0.00017
 852,-0.00003556,-0.00048122,0.00051137,0.00004503,-0.00457468,-0.00231
 763,0.00240434,0.01609372,-0.04543118,-0.00269276,-0.00227584,0.006724
 59,-0.00096070,-0.09038122,0.16016538,0.01837472,0.00047284,-0.0000384
 6,-0.00004973,-0.00011935,0.00005437,0.00000608,-0.00022110,-0.0000874
 7,-0.00001099,-0.00007583,0.00001412,0.00001053,-0.00003670,-0.0000861
 2,0.00005982,0.00001991,-0.00009549,-0.00001808,0.00002827,0.00001159,
 -0.00001059,0.00055251,0.00005283,-0.00013273,0.08064777,0.00046102,-0
 .00086010,-0.00008531,-0.00060052,0.00011030,0.00015097,0.00007008,0.0
 0022753,-0.00000232,0.00004286,0.00014271,-0.00002160,-0.00036798,0.00
 088656,0.00006354,-0.00377095,0.00083189,0.00100115,-0.00068674,-0.041
 50047,0.00063958,0.00812297,0.00530144,-0.00218651,0.11499882,-0.45581
 311,-0.02665522,0.00066951,-0.00029757,-0.00016781,-0.00018981,0.00019
 850,0.00001569,-0.00027248,0.00002339,0.00003951,-0.00011209,0.0000402
 9,0.00004796,-0.00013489,-0.00013015,0.00003744,0.00003679,-0.00004906
 ,-0.00001203,0.00002345,-0.00000469,-0.00000619,0.00023538,0.00001422,
 -0.00004831,-0.11855859,0.49088678,-0.00003792,0.00032551,0.00053699,0
 .00003105,0.00004099,-0.00038351,0.00003443,-0.00004917,0.00002892,-0.
 00003612,-0.00004362,0.00010896,0.00006151,-0.00015038,-0.00023262,0.0
 0245181,0.00064754,0.00397130,-0.00301524,0.01239815,0.00471153,-0.000
 97125,-0.00183177,-0.00549547,0.01864874,-0.03856891,-0.01984988,-0.00
 005849,0.00005465,0.00021305,0.00001759,0.00000136,-0.00007083,0.00000
 852,-0.00003193,-0.00009588,0.00001726,-0.00002558,-0.00002966,0.00005
 813,0.00002695,0.00016788,-0.00002423,0.00002705,-0.00006155,-0.000009
 93,-0.00000310,-0.00001063,-0.00015005,-0.00001213,-0.00009107,-0.0170
 2842,0.02720799,0.01658710,0.00012449,0.00010544,-0.00002927,0.0001108
 6,-0.00007609,0.00004793,0.00025330,0.00005323,0.00004461,0.00005272,0
 .00029667,-0.00032664,0.00032895,-0.00035992,0.00005173,-0.00018876,0.
 00002089,0.00006202,-0.00000807,0.00000408,-0.00001818,0.00000543,-0.0
 0001051,0.00000522,0.00000088,-0.00001294,0.00000490,-0.00088070,0.000
 04389,0.00055106,0.00036241,-0.00089720,0.00003879,0.00016597,0.000113
 35,-0.00011209,-0.27395025,0.08948653,0.06618311,-0.00000450,0.0000040
 9,-0.00001384,0.00001042,-0.00000233,-0.00000410,-0.00003257,-0.000003
 20,-0.00009924,-0.00001210,0.00001962,-0.00002413,0.00000183,0.0000027
 2,-0.00000194,0.29159660,0.00013551,0.00041223,-0.00004668,0.00040797,
 -0.00030901,-0.00001764,-0.00046011,-0.00009194,0.00002025,0.00026936,
 0.00077411,-0.00034829,0.00019527,-0.00010342,-0.00005681,-0.00044804,
 0.00003397,0.00003824,-0.00002094,0.00000328,-0.00001061,-0.00000342,0
 .00000128,0.00000758,-0.00000842,-0.00002579,-0.00000636,0.00220616,-0
 .00175052,-0.00083416,0.00009995,-0.00059887,0.00032020,-0.00133382,-0
 .00044542,0.00011588,0.08960929,-0.07989837,-0.02570704,0.00000202,0.0
 0001068,-0.00000058,0.00001488,-0.00000856,0.00002492,-0.00000298,0.00
 001818,-0.00009174,0.00003467,0.00001987,0.00012951,0.00000806,0.00000
 693,-0.00000084,-0.09716725,0.08110323,0.00013605,-0.00011823,-0.00010
 455,0.00029237,-0.00004120,0.00047974,0.00007997,-0.00069458,-0.000113
 61,-0.00077073,-0.00005801,-0.00608024,0.00031055,0.00047506,-0.000159
 07,0.00039678,-0.00009789,0.00047369,0.00013422,0.00043856,-0.00001040
 ,0.00004499,-0.00022632,-0.00002805,-0.00011477,-0.00021526,0.00004999
 ,0.03267555,-0.01289334,-0.01092218,-0.00343087,0.00151908,0.00255419,
 -0.00333490,0.00143181,0.00248106,0.06840628,-0.02657129,-0.06196554,-
 0.00003860,0.00001664,-0.00006787,0.00008823,-0.00001848,-0.00000934,0
 .00004491,0.00002179,-0.00029065,-0.00000343,-0.00009194,-0.00030317,0
 .00001908,0.00002717,-0.00000929,-0.07313977,0.02872173,0.06681426,0.0
 0004283,0.00015918,-0.00000504,0.00003393,-0.00013307,0.00000342,-0.00
 019002,0.00018725,0.00006846,-0.00001028,0.00024660,-0.00017272,0.0001
 2606,-0.00015422,0.00002132,-0.00016927,-0.00001651,0.00005587,-0.0000
 0553,0.00005342,-0.00000339,0.00000205,-0.00001736,-0.00000268,-0.0000
 1368,-0.00002864,0.00000318,-0.00179410,0.00038945,0.00081316,0.000380
 36,0.00103753,0.00029267,0.00226197,0.00043663,0.00091824,-0.19622877,
 -0.13152979,-0.05616517,-0.00000133,0.00000054,0.00000241,-0.00001492,
 0.00000026,-0.00000256,0.00008718,-0.00011391,-0.00000519,0.00001565,-
 0.00002541,-0.00003115,0.00000131,0.00000634,0.00000148,-0.01611023,-0
 .01775377,-0.00899017,0.20690564,0.00003655,0.00012513,-0.00000691,0.0
 0018280,-0.00006964,0.00000050,0.00007994,0.00022061,-0.00000807,0.000
 15230,0.00024650,0.00010014,0.00007620,-0.00036139,0.00007974,-0.00013
 989,0.00003257,0.00000091,-0.00005459,-0.00021318,-0.00000182,-0.00000
 464,0.00008259,0.00001050,0.00006720,0.00009781,-0.00001378,-0.0006360
 0,-0.00377130,-0.00048802,0.00052907,0.00002707,0.00082779,-0.00004548
 ,0.00166177,-0.00047235,-0.13209718,-0.16169508,-0.04804468,0.00000650
 ,-0.00000107,-0.00000781,-0.00000467,0.00000014,-0.00000746,-0.0000092
 0,0.00000618,-0.00003201,-0.00004864,0.00005552,0.00005460,-0.00001158
 ,-0.00001596,-0.00000130,0.00877067,0.00828089,0.00497544,0.14257135,0
 .16906074,0.00002608,0.00021704,-0.00003855,0.00032275,0.00006502,-0.0
 0012286,0.00036382,-0.00045785,0.00000874,0.00109150,0.00163438,0.0008
 7691,0.00007123,-0.00024805,0.00013667,-0.00030150,0.00015044,-0.00006
 787,-0.00004041,-0.00030274,-0.00002241,-0.00003880,0.00012746,0.00001
 913,0.00007345,0.00011964,-0.00000279,-0.02345364,-0.01987056,-0.00439
 582,0.00266210,0.00200741,0.00159930,-0.00222533,-0.00331973,-0.008891
 58,-0.05602606,-0.04755828,-0.06410057,0.00000777,0.00001385,0.0000055
 2,0.00003807,-0.00002212,0.00000838,0.00005114,0.00013177,-0.00020094,
 -0.00010626,0.00007768,0.00003070,-0.00000892,-0.00001713,-0.00000389,
 0.00648246,0.00755908,0.00290998,0.06009542,0.05255898,0.06782214,-0.0
 0000261,-0.00001523,0.00000006,-0.00002704,0.00001446,0.00004874,-0.00
 003189,-0.00010352,-0.00000159,-0.00010946,-0.00004491,-0.00015963,-0.
 00015492,0.00012206,0.00006124,-0.00006261,0.00004997,-0.00001084,0.00
 000464,0.00016765,0.00002329,0.00000986,-0.00006322,-0.00001263,-0.000
 05269,-0.00009237,-0.00001332,-0.00268287,-0.00005915,0.00087111,0.001
 84266,-0.00031990,0.00058002,-0.00052431,-0.00071192,-0.00015908,-0.05
 239849,0.03826781,-0.01663014,-0.00000319,0.00000746,0.00000414,0.0000
 0158,-0.00000059,-0.00000013,0.00004884,0.00000655,-0.00006977,0.00013
 514,0.00003718,0.00001822,0.00002028,0.00002411,0.00000310,-0.00182667
 ,0.02421561,-0.01280574,0.00468115,-0.01942070,0.01091514,0.05113260,0
 .00007246,0.00017902,-0.00002879,0.00013286,-0.00015798,-0.00004075,-0
 .00031973,-0.00017812,-0.00000057,0.00008555,0.00006854,0.00016386,0.0
 0034496,0.00016500,-0.00014535,-0.00019906,-0.00006484,-0.00001406,0.0
 0010277,0.00014643,-0.00001721,-0.00003677,-0.00004336,0.00000649,-0.0
 0007253,-0.00008515,0.00004648,-0.00104798,0.00055687,-0.00060544,-0.0
 0007414,0.00242103,-0.00166437,0.00003113,0.00044918,-0.00068990,0.038
 81299,-0.28626903,0.09796757,-0.00000230,0.00000551,0.00000822,0.00000
 602,-0.00000545,0.00000712,0.00001209,0.00000702,-0.00001554,-0.000068
 06,-0.00003929,-0.00001300,0.00000866,0.00000055,-0.00001147,-0.000391
 74,-0.00743276,0.00339926,0.00468414,-0.01376991,0.00713371,-0.0420813
 3,0.30404674,-0.00017045,-0.00026869,0.00002304,-0.00030742,0.00016435
 ,-0.00006093,0.00024386,0.00026358,0.00011922,-0.00016514,-0.00194132,
 0.00117722,0.00054117,0.00013514,-0.00005700,0.00026767,-0.00025218,-0
 .00007928,0.00016431,-0.00017176,-0.00001724,-0.00009029,0.00008545,0.
 00001319,-0.00001858,0.00008852,0.00000355,-0.00489797,0.02985423,-0.0
 0775448,0.00007889,0.00265243,-0.00930463,0.00083434,-0.00312835,0.002
 04301,-0.01699273,0.09760258,-0.08309495,-0.00000293,-0.00002406,0.000
 01341,-0.00002776,0.00000862,-0.00002588,-0.00015406,0.00000128,0.0000
 4262,-0.00003151,-0.00021399,-0.00023312,-0.00000906,-0.00002857,0.000
 00856,0.00029737,-0.00981665,0.00430105,0.00310244,-0.00952438,0.00442
 981,0.01733783,-0.10548625,0.08845282\\-0.00000422,-0.00001225,-0.0000
 0114,-0.00000741,0.00000592,0.00000534,0.00001238,-0.00000346,-0.00000
 517,0.00000651,-0.00001340,0.00000577,-0.00000809,0.00001247,0.0000018
 0,0.00000419,0.00001316,0.00000078,0.00001116,-0.00001248,-0.00000679,
 -0.00000754,0.00000003,0.00000933,-0.00000911,-0.00000239,-0.00000193,
 -0.00000513,0.00000140,-0.00000695,0.00000290,0.00000223,-0.00000183,0
 .00000216,0.00000700,-0.00000294,0.00000408,0.00000307,-0.00000392,0.0
 0000119,-0.00000260,0.00000373,0.00000374,-0.00000279,0.00000157,0.000
 00390,0.00000058,0.00000424,0.00000040,-0.00000135,0.,-0.00000433,-0.0
 0000056,0.00000021,-0.00000199,0.00000326,-0.00000082,-0.00000142,0.00
 000137,0.00000030,-0.00000338,0.00000078,-0.00000157\\\@
 The archive entry for this job was punched.


 CHINESE FORTUNE COOKIE OF JAN 1 1967 SAY....
 ALL THINGS ARE DIFFICULT BEFORE THEY ARE EASY.
 WE LEARN SO LITTLE AND FORGET SO MUCH.
 YOU WILL OVERCOME OBSTACLES TO ACHIEVE SUCCESS.
 AH SO.
 Job cpu time:       1 days  2 hours 47 minutes 48.2 seconds.
 Elapsed time:       0 days  1 hours 20 minutes 23.5 seconds.
 File lengths (MBytes):  RWF=    851 Int=      0 D2E=      0 Chk=     49 Scr=      1
 Normal termination of Gaussian 16 at Wed Apr  2 15:18:15 2025.
