 Entering Gaussian System, Link 0=g16
 Initial command:
 /usr/local/gaussian16c01/g16/l1.exe "/scr/dhuang/Gau-180888.inp" -scrdir="/scr/dhuang/"
 Entering Link 1 = /usr/local/gaussian16c01/g16/l1.exe PID=    180890.
  
 Copyright (c) 1988-2019, Gaussian, Inc.  All Rights Reserved.
  
 This is part of the Gaussian(R) 16 program.  It is based on
 the Gaussian(R) 09 system (copyright 2009, Gaussian, Inc.),
 the Gaussian(R) 03 system (copyright 2003, Gaussian, Inc.),
 the Gaussian(R) 98 system (copyright 1998, Gaussian, Inc.),
 the Gaussian(R) 94 system (copyright 1995, Gaussian, Inc.),
 the Gaussian 92(TM) system (copyright 1992, Gaussian, Inc.),
 the Gaussian 90(TM) system (copyright 1990, Gaussian, Inc.),
 the Gaussian 88(TM) system (copyright 1988, Gaussian, Inc.),
 the Gaussian 86(TM) system (copyright 1986, Carnegie Mellon
 University), and the Gaussian 82(TM) system (copyright 1983,
 Carnegie Mellon University). Gaussian is a federally registered
 trademark of Gaussian, Inc.
  
 This software contains proprietary and confidential information,
 including trade secrets, belonging to Gaussian, Inc.
  
 This software is provided under written license and may be
 used, copied, transmitted, or stored only in accord with that
 written license.
  
 The following legend is applicable only to US Government
 contracts under FAR:
  
                    RESTRICTED RIGHTS LEGEND
  
 Use, reproduction and disclosure by the US Government is
 subject to restrictions as set forth in subparagraphs (a)
 and (c) of the Commercial Computer Software - Restricted
 Rights clause in FAR 52.227-19.
  
 Gaussian, Inc.
 340 Quinnipiac St., Bldg. 40, Wallingford CT 06492
  
  
 ---------------------------------------------------------------
 Warning -- This program may not be used in any manner that
 competes with the business of Gaussian, Inc. or will provide
 assistance to any competitor of Gaussian, Inc.  The licensee
 of this program is prohibited from giving any competitor of
 Gaussian, Inc. access to this program.  By using this program,
 the user acknowledges that Gaussian, Inc. is engaged in the
 business of creating and licensing software in the field of
 computational chemistry and represents and warrants to the
 licensee that it is not a competitor of Gaussian, Inc. and that
 it will not use this program in any manner prohibited above.
 ---------------------------------------------------------------
  

 Cite this work as:
 Gaussian 16, Revision C.01,
 M. J. Frisch, G. W. Trucks, H. B. Schlegel, G. E. Scuseria, 
 M. A. Robb, J. R. Cheeseman, G. Scalmani, V. Barone, 
 G. A. Petersson, H. Nakatsuji, X. Li, M. Caricato, A. V. Marenich, 
 J. Bloino, B. G. Janesko, R. Gomperts, B. Mennucci, H. P. Hratchian, 
 J. V. Ortiz, A. F. Izmaylov, J. L. Sonnenberg, D. Williams-Young, 
 F. Ding, F. Lipparini, F. Egidi, J. Goings, B. Peng, A. Petrone, 
 T. Henderson, D. Ranasinghe, V. G. Zakrzewski, J. Gao, N. Rega, 
 G. Zheng, W. Liang, M. Hada, M. Ehara, K. Toyota, R. Fukuda, 
 J. Hasegawa, M. Ishida, T. Nakajima, Y. Honda, O. Kitao, H. Nakai, 
 T. Vreven, K. Throssell, J. A. Montgomery, Jr., J. E. Peralta, 
 F. Ogliaro, M. J. Bearpark, J. J. Heyd, E. N. Brothers, K. N. Kudin, 
 V. N. Staroverov, T. A. Keith, R. Kobayashi, J. Normand, 
 K. Raghavachari, A. P. Rendell, J. C. Burant, S. S. Iyengar, 
 J. Tomasi, M. Cossi, J. M. Millam, M. Klene, C. Adamo, R. Cammi, 
 J. W. Ochterski, R. L. Martin, K. Morokuma, O. Farkas, 
 J. B. Foresman, and D. J. Fox, Gaussian, Inc., Wallingford CT, 2019.
 
 ******************************************
 Gaussian 16:  ES64L-G16RevC.01  3-Jul-2019
                 2-Apr-2025 
 ******************************************
 %nprocshared=20
 Will use up to   20 processors via shared memory.
 %mem=10000MW
 %chk=o-Cl.chk
 ------------------------------------
 # opt freq m062x/aug-cc-pvtz pop=nbo
 ------------------------------------
 1/18=20,19=15,26=3,38=1/1,3;
 2/9=110,12=2,17=6,18=5,40=1/2;
 3/5=16,6=1,7=10,11=2,25=1,30=1,71=1,74=-55/1,2,3;
 4//1;
 5/5=2,38=5/2;
 6/7=2,8=2,9=2,10=2,28=1,40=1/1,7;
 7//1,2,3,16;
 1/18=20,19=15,26=3/3(2);
 2/9=110/2;
 99//99;
 2/9=110/2;
 3/5=16,6=1,7=10,11=2,25=1,30=1,71=1,74=-55/1,2,3;
 4/5=5,16=3,69=1/1;
 5/5=2,38=5/2;
 7//1,2,3,16;
 1/18=20,19=15,26=3/3(-5);
 2/9=110/2;
 6/7=2,8=2,9=2,10=2,19=2,28=1,40=1/1,7;
 99/9=1/99;
 ----
 o-Cl
 ----
 Symbolic Z-matrix:
 Charge =  0 Multiplicity = 1
 C                    -1.4487   -0.3201   -0.0011 
 C                    -1.4875   -1.6613   -0.0014 
 C                    -0.3467   -2.3612   -0.0006 
 C                     0.82     -1.7026    0.0005 
 C                     0.8589   -0.3571    0.0008 
 C                    -0.2855    0.3671    0. 
 C                    -0.3289    1.7373    0.0003 
 O                    -1.3738    2.3563   -0.0004 
 O                     0.7616    2.5412    0.0014 
 Cl                    2.4551    0.3192    0.0023 
 H                    -2.4309    0.1818   -0.0017 
 H                    -2.4551   -2.1915   -0.0023 
 H                    -0.3688   -3.4637   -0.0008 
 H                     1.7482   -2.3003    0.0011 
 H                     0.4596    3.4637    0.0013 
 

 GradGradGradGradGradGradGradGradGradGradGradGradGradGradGradGradGradGrad
 Berny optimization.
 Initialization pass.
                           ----------------------------
                           !    Initial Parameters    !
                           ! (Angstroms and Degrees)  !
 --------------------------                            --------------------------
 ! Name  Definition              Value          Derivative Info.                !
 --------------------------------------------------------------------------------
 ! R1    R(1,2)                  1.3418         estimate D2E/DX2                !
 ! R2    R(1,6)                  1.351          estimate D2E/DX2                !
 ! R3    R(1,11)                 1.103          estimate D2E/DX2                !
 ! R4    R(2,3)                  1.3384         estimate D2E/DX2                !
 ! R5    R(2,12)                 1.1033         estimate D2E/DX2                !
 ! R6    R(3,4)                  1.3398         estimate D2E/DX2                !
 ! R7    R(3,13)                 1.1027         estimate D2E/DX2                !
 ! R8    R(4,5)                  1.3461         estimate D2E/DX2                !
 ! R9    R(4,14)                 1.104          estimate D2E/DX2                !
 ! R10   R(5,6)                  1.3543         estimate D2E/DX2                !
 ! R11   R(5,10)                 1.7336         estimate D2E/DX2                !
 ! R12   R(6,7)                  1.3709         estimate D2E/DX2                !
 ! R13   R(7,8)                  1.2145         estimate D2E/DX2                !
 ! R14   R(7,9)                  1.3548         estimate D2E/DX2                !
 ! R15   R(9,15)                 0.9707         estimate D2E/DX2                !
 ! A1    A(2,1,6)              122.231          estimate D2E/DX2                !
 ! A2    A(2,1,11)             115.4098         estimate D2E/DX2                !
 ! A3    A(6,1,11)             122.3593         estimate D2E/DX2                !
 ! A4    A(1,2,3)              119.8727         estimate D2E/DX2                !
 ! A5    A(1,2,12)             120.3778         estimate D2E/DX2                !
 ! A6    A(3,2,12)             119.7495         estimate D2E/DX2                !
 ! A7    A(2,3,4)              119.0256         estimate D2E/DX2                !
 ! A8    A(2,3,13)             120.3814         estimate D2E/DX2                !
 ! A9    A(4,3,13)             120.593          estimate D2E/DX2                !
 ! A10   A(3,4,5)              121.1007         estimate D2E/DX2                !
 ! A11   A(3,4,14)             117.7765         estimate D2E/DX2                !
 ! A12   A(5,4,14)             121.1228         estimate D2E/DX2                !
 ! A13   A(4,5,6)              120.6704         estimate D2E/DX2                !
 ! A14   A(4,5,10)             114.6181         estimate D2E/DX2                !
 ! A15   A(6,5,10)             124.7115         estimate D2E/DX2                !
 ! A16   A(1,6,5)              117.0996         estimate D2E/DX2                !
 ! A17   A(1,6,7)              118.7597         estimate D2E/DX2                !
 ! A18   A(5,6,7)              124.1407         estimate D2E/DX2                !
 ! A19   A(6,7,8)              122.4567         estimate D2E/DX2                !
 ! A20   A(6,7,9)              124.5829         estimate D2E/DX2                !
 ! A21   A(8,7,9)              112.9604         estimate D2E/DX2                !
 ! A22   A(7,9,15)             108.2701         estimate D2E/DX2                !
 ! D1    D(6,1,2,3)             -0.0002         estimate D2E/DX2                !
 ! D2    D(6,1,2,12)           179.9996         estimate D2E/DX2                !
 ! D3    D(11,1,2,3)          -179.9937         estimate D2E/DX2                !
 ! D4    D(11,1,2,12)            0.0061         estimate D2E/DX2                !
 ! D5    D(2,1,6,5)              0.0001         estimate D2E/DX2                !
 ! D6    D(2,1,6,7)           -179.997          estimate D2E/DX2                !
 ! D7    D(11,1,6,5)           179.9932         estimate D2E/DX2                !
 ! D8    D(11,1,6,7)            -0.004          estimate D2E/DX2                !
 ! D9    D(1,2,3,4)              0.0004         estimate D2E/DX2                !
 ! D10   D(1,2,3,13)           179.9977         estimate D2E/DX2                !
 ! D11   D(12,2,3,4)          -179.9995         estimate D2E/DX2                !
 ! D12   D(12,2,3,13)           -0.0021         estimate D2E/DX2                !
 ! D13   D(2,3,4,5)             -0.0004         estimate D2E/DX2                !
 ! D14   D(2,3,4,14)          -179.9974         estimate D2E/DX2                !
 ! D15   D(13,3,4,5)          -179.9977         estimate D2E/DX2                !
 ! D16   D(13,3,4,14)            0.0053         estimate D2E/DX2                !
 ! D17   D(3,4,5,6)              0.0003         estimate D2E/DX2                !
 ! D18   D(3,4,5,10)           179.9986         estimate D2E/DX2                !
 ! D19   D(14,4,5,6)           179.9972         estimate D2E/DX2                !
 ! D20   D(14,4,5,10)           -0.0046         estimate D2E/DX2                !
 ! D21   D(4,5,6,1)             -0.0002         estimate D2E/DX2                !
 ! D22   D(4,5,6,7)            179.9968         estimate D2E/DX2                !
 ! D23   D(10,5,6,1)          -179.9982         estimate D2E/DX2                !
 ! D24   D(10,5,6,7)            -0.0012         estimate D2E/DX2                !
 ! D25   D(1,6,7,8)             -0.0008         estimate D2E/DX2                !
 ! D26   D(1,6,7,9)            179.9985         estimate D2E/DX2                !
 ! D27   D(5,6,7,8)           -179.9977         estimate D2E/DX2                !
 ! D28   D(5,6,7,9)              0.0015         estimate D2E/DX2                !
 ! D29   D(6,7,9,15)           179.9953         estimate D2E/DX2                !
 ! D30   D(8,7,9,15)            -0.0054         estimate D2E/DX2                !
 --------------------------------------------------------------------------------
 Trust Radius=3.00D-01 FncErr=1.00D-07 GrdErr=1.00D-06 EigMax=2.50D+02 EigMin=1.00D-04
 Number of steps in this run=     77 maximum allowed number of steps=    100.
 GradGradGradGradGradGradGradGradGradGradGradGradGradGradGradGradGradGrad

                          Input orientation:                          
 ---------------------------------------------------------------------
 Center     Atomic      Atomic             Coordinates (Angstroms)
 Number     Number       Type             X           Y           Z
 ---------------------------------------------------------------------
      1          6           0       -1.448700   -0.320100   -0.001100
      2          6           0       -1.487500   -1.661300   -0.001400
      3          6           0       -0.346700   -2.361200   -0.000600
      4          6           0        0.820000   -1.702600    0.000500
      5          6           0        0.858900   -0.357100    0.000800
      6          6           0       -0.285500    0.367100    0.000000
      7          6           0       -0.328900    1.737300    0.000300
      8          8           0       -1.373800    2.356300   -0.000400
      9          8           0        0.761600    2.541200    0.001400
     10         17           0        2.455100    0.319200    0.002300
     11          1           0       -2.430900    0.181800   -0.001700
     12          1           0       -2.455100   -2.191500   -0.002300
     13          1           0       -0.368800   -3.463700   -0.000800
     14          1           0        1.748200   -2.300300    0.001100
     15          1           0        0.459600    3.463700    0.001300
 ---------------------------------------------------------------------
                    Distance matrix (angstroms):
                    1          2          3          4          5
     1  C    0.000000
     2  C    1.341761   0.000000
     3  C    2.319589   1.338389   0.000000
     4  C    2.656748   2.307870   1.339755   0.000000
     5  C    2.307897   2.684499   2.338780   1.346062   0.000000
     6  C    1.351029   2.357798   2.728986   2.346442   1.354296
     7  C    2.342402   3.590660   4.098539   3.626690   2.407775
     8  O    2.677448   4.019209   4.828016   4.613830   3.513900
     9  O    3.615587   4.766494   5.026118   4.244202   2.899933
    10  Cl   3.955802   4.412084   3.877452   2.600237   1.733562
    11  H    1.103005   2.070512   3.287969   3.757568   3.333647
    12  H    2.124848   1.103342   2.115219   3.311391   3.787826
    13  H    3.323914   2.121352   1.102721   2.124787   3.340391
    14  H    3.760501   3.298194   2.095786   1.103993   2.137026
    15  H    4.237777   5.482411   5.880441   5.178856   3.841608
                    6          7          8          9         10
     6  C    0.000000
     7  C    1.370887   0.000000
     8  O    2.267447   1.214487   0.000000
     9  O    2.413116   1.354787   2.143391   0.000000
    10  Cl   2.741020   3.124367   4.337080   2.793784   0.000000
    11  H    2.153388   2.614955   2.417832   3.969740   4.887933
    12  H    3.354639   4.467237   4.674580   5.722379   5.514862
    13  H    3.831706   5.201153   5.906135   6.110371   4.720673
    14  H    3.354245   4.540546   5.606319   4.941002   2.713206
    15  H    3.184982   1.897944   2.141890   0.970675   3.724232
                   11         12         13         14         15
    11  H    0.000000
    12  H    2.373423   0.000000
    13  H    4.188308   2.443592   0.000000
    14  H    4.860628   4.204709   2.415614   0.000000
    15  H    4.373313   6.362136   6.976756   5.906284   0.000000
 Stoichiometry    C7H5ClO2
 Framework group  C1[X(C7H5ClO2)]
 Deg. of freedom    39
 Full point group                 C1      NOp   1
 Largest Abelian subgroup         C1      NOp   1
 Largest concise Abelian subgroup C1      NOp   1
                         Standard orientation:                         
 ---------------------------------------------------------------------
 Center     Atomic      Atomic             Coordinates (Angstroms)
 Number     Number       Type             X           Y           Z
 ---------------------------------------------------------------------
      1          6           0        0.856350   -1.556986   -0.000027
      2          6           0        2.174511   -1.306437    0.000002
      3          6           0        2.612690   -0.041809    0.000014
      4          6           0        1.718588    0.955951    0.000005
      5          6           0        0.396206    0.704575   -0.000025
      6          6           0       -0.064930   -0.568795   -0.000040
      7          6           0       -1.393734   -0.905858   -0.000007
      8          8           0       -1.773531   -2.059431    0.000019
      9          8           0       -2.413349   -0.013763    0.000014
     10         17           0       -0.607552    2.117978    0.000007
     11          1           0        0.577429   -2.624143    0.000073
     12          1           0        2.900399   -2.137370    0.000018
     13          1           0        3.694145    0.173715    0.000076
     14          1           0        2.102681    1.990975   -0.000030
     15          1           0       -3.249314   -0.507092   -0.000040
 ---------------------------------------------------------------------
 Rotational constants (GHZ):           1.5763046           1.2574454           0.6994678
 Standard basis: Aug-CC-pVTZ (5D, 7F)
 There are   679 symmetry adapted cartesian basis functions of A   symmetry.
 There are   579 symmetry adapted basis functions of A   symmetry.
   579 basis functions,   897 primitive gaussians,   679 cartesian basis functions
    40 alpha electrons       40 beta electrons
       nuclear repulsion energy       584.6258297582 Hartrees.
 NAtoms=   15 NActive=   15 NUniq=   15 SFac= 1.00D+00 NAtFMM=   60 NAOKFM=F Big=F
 Integral buffers will be    131072 words long.
 Raffenetti 2 integral format.
 Two-electron integral symmetry is turned on.
 One-electron integrals computed using PRISM.
 NBasis=   579 RedAO= T EigKep=  1.04D-06  NBF=   579
 NBsUse=   576 1.00D-06 EigRej=  9.23D-07 NBFU=   576
 ExpMin= 2.53D-02 ExpMax= 4.56D+05 ExpMxC= 1.44D+03 IAcc=3 IRadAn=         5 AccDes= 0.00D+00
 Harris functional with IExCor= 1009 and IRadAn=       5 diagonalized for initial guess.
 HarFok:  IExCor= 1009 AccDes= 0.00D+00 IRadAn=         5 IDoV= 1 UseB2=F ITyADJ=14
 ICtDFT=  3500011 ScaDFX=  1.000000  1.000000  1.000000  1.000000
 FoFCou: FMM=F IPFlag=           0 FMFlag=      100000 FMFlg1=           0
         NFxFlg=           0 DoJE=T BraDBF=F KetDBF=T FulRan=T
         wScrn=  0.000000 ICntrl=       500 IOpCl=  0 I1Cent=   200000004 NGrid=           0
         NMat0=    1 NMatS0=      1 NMatT0=    0 NMatD0=    1 NMtDS0=    0 NMtDT0=    0
 Petite list used in FoFCou.
 Requested convergence on RMS density matrix=1.00D-08 within 128 cycles.
 Requested convergence on MAX density matrix=1.00D-06.
 Requested convergence on             energy=1.00D-06.
 No special actions if energy rises.
 SCF Done:  E(RM062X) =  -880.388287135     A.U. after   14 cycles
            NFock= 14  Conv=0.47D-08     -V/T= 2.0025

 **********************************************************************

            Population analysis using the SCF Density.

 **********************************************************************

 Orbital symmetries:
       Occupied  (A) (A) (A) (A) (A) (A) (A) (A) (A) (A) (A) (A)
                 (A) (A) (A) (A) (A) (A) (A) (A) (A) (A) (A) (A)
                 (A) (A) (A) (A) (A) (A) (A) (A) (A) (A) (A) (A)
                 (A) (A) (A) (A)
       Virtual   (A) (A) (A) (A) (A) (A) (A) (A) (A) (A) (A) (A)
                 (A) (A) (A) (A) (A) (A) (A) (A) (A) (A) (A) (A)
                 (A) (A) (A) (A) (A) (A) (A) (A) (A) (A) (A) (A)
                 (A) (A) (A) (A) (A) (A) (A) (A) (A) (A) (A) (A)
                 (A) (A) (A) (A) (A) (A) (A) (A) (A) (A) (A) (A)
                 (A) (A) (A) (A) (A) (A) (A) (A) (A) (A) (A) (A)
                 (A) (A) (A) (A) (A) (A) (A) (A) (A) (A) (A) (A)
                 (A) (A) (A) (A) (A) (A) (A) (A) (A) (A) (A) (A)
                 (A) (A) (A) (A) (A) (A) (A) (A) (A) (A) (A) (A)
                 (A) (A) (A) (A) (A) (A) (A) (A) (A) (A) (A) (A)
                 (A) (A) (A) (A) (A) (A) (A) (A) (A) (A) (A) (A)
                 (A) (A) (A) (A) (A) (A) (A) (A) (A) (A) (A) (A)
                 (A) (A) (A) (A) (A) (A) (A) (A) (A) (A) (A) (A)
                 (A) (A) (A) (A) (A) (A) (A) (A) (A) (A) (A) (A)
                 (A) (A) (A) (A) (A) (A) (A) (A) (A) (A) (A) (A)
                 (A) (A) (A) (A) (A) (A) (A) (A) (A) (A) (A) (A)
                 (A) (A) (A) (A) (A) (A) (A) (A) (A) (A) (A) (A)
                 (A) (A) (A) (A) (A) (A) (A) (A) (A) (A) (A) (A)
                 (A) (A) (A) (A) (A) (A) (A) (A) (A) (A) (A) (A)
                 (A) (A) (A) (A) (A) (A) (A) (A) (A) (A) (A) (A)
                 (A) (A) (A) (A) (A) (A) (A) (A) (A) (A) (A) (A)
                 (A) (A) (A) (A) (A) (A) (A) (A) (A) (A) (A) (A)
                 (A) (A) (A) (A) (A) (A) (A) (A) (A) (A) (A) (A)
                 (A) (A) (A) (A) (A) (A) (A) (A) (A) (A) (A) (A)
                 (A) (A) (A) (A) (A) (A) (A) (A) (A) (A) (A) (A)
                 (A) (A) (A) (A) (A) (A) (A) (A) (A) (A) (A) (A)
                 (A) (A) (A) (A) (A) (A) (A) (A) (A) (A) (A) (A)
                 (A) (A) (A) (A) (A) (A) (A) (A) (A) (A) (A) (A)
                 (A) (A) (A) (A) (A) (A) (A) (A) (A) (A) (A) (A)
                 (A) (A) (A) (A) (A) (A) (A) (A) (A) (A) (A) (A)
                 (A) (A) (A) (A) (A) (A) (A) (A) (A) (A) (A) (A)
                 (A) (A) (A) (A) (A) (A) (A) (A) (A) (A) (A) (A)
                 (A) (A) (A) (A) (A) (A) (A) (A) (A) (A) (A) (A)
                 (A) (A) (A) (A) (A) (A) (A) (A) (A) (A) (A) (A)
                 (A) (A) (A) (A) (A) (A) (A) (A) (A) (A) (A) (A)
                 (A) (A) (A) (A) (A) (A) (A) (A) (A) (A) (A) (A)
                 (A) (A) (A) (A) (A) (A) (A) (A) (A) (A) (A) (A)
                 (A) (A) (A) (A) (A) (A) (A) (A) (A) (A) (A) (A)
                 (A) (A) (A) (A) (A) (A) (A) (A) (A) (A) (A) (A)
                 (A) (A) (A) (A) (A) (A) (A) (A) (A) (A) (A) (A)
                 (A) (A) (A) (A) (A) (A) (A) (A) (A) (A) (A) (A)
                 (A) (A) (A) (A) (A) (A) (A) (A) (A) (A) (A) (A)
                 (A) (A) (A) (A) (A) (A) (A) (A) (A) (A) (A) (A)
                 (A) (A) (A) (A) (A) (A) (A) (A) (A) (A) (A) (A)
                 (A) (A) (A) (A) (A) (A) (A) (A)
 The electronic state is 1-A.
 Alpha  occ. eigenvalues -- -102.68449 -19.66531 -19.60803 -10.67815 -10.62244
 Alpha  occ. eigenvalues --  -10.57180 -10.56488 -10.56454 -10.56037 -10.55512
 Alpha  occ. eigenvalues --   -9.82175  -7.54421  -7.53868  -7.53814  -1.24204
 Alpha  occ. eigenvalues --   -1.12913  -1.04151  -0.96506  -0.91552  -0.85979
 Alpha  occ. eigenvalues --   -0.78313  -0.71855  -0.69193  -0.63661  -0.59665
 Alpha  occ. eigenvalues --   -0.57189  -0.55881  -0.55516  -0.52790  -0.51095
 Alpha  occ. eigenvalues --   -0.49377  -0.48963  -0.44945  -0.42958  -0.42315
 Alpha  occ. eigenvalues --   -0.39691  -0.37905  -0.35660  -0.34570  -0.32424
 Alpha virt. eigenvalues --   -0.04277  -0.00993   0.00127   0.00235   0.00596
 Alpha virt. eigenvalues --    0.01918   0.02764   0.02987   0.03713   0.04705
 Alpha virt. eigenvalues --    0.05262   0.06111   0.06243   0.06702   0.07202
 Alpha virt. eigenvalues --    0.07335   0.07612   0.08297   0.09049   0.09413
 Alpha virt. eigenvalues --    0.09592   0.09714   0.10097   0.10568   0.10864
 Alpha virt. eigenvalues --    0.11087   0.11917   0.12722   0.13105   0.14020
 Alpha virt. eigenvalues --    0.14812   0.15285   0.15372   0.16144   0.16441
 Alpha virt. eigenvalues --    0.17093   0.17406   0.18917   0.19798   0.19841
 Alpha virt. eigenvalues --    0.19926   0.20244   0.20571   0.21106   0.21989
 Alpha virt. eigenvalues --    0.22379   0.22977   0.23720   0.24173   0.24241
 Alpha virt. eigenvalues --    0.25093   0.25342   0.25478   0.25711   0.26253
 Alpha virt. eigenvalues --    0.27376   0.28463   0.28789   0.29574   0.30283
 Alpha virt. eigenvalues --    0.31094   0.31697   0.32385   0.32871   0.33147
 Alpha virt. eigenvalues --    0.33228   0.33594   0.34292   0.34473   0.35290
 Alpha virt. eigenvalues --    0.35528   0.36160   0.36583   0.36853   0.37269
 Alpha virt. eigenvalues --    0.37666   0.38238   0.38590   0.39267   0.39751
 Alpha virt. eigenvalues --    0.39880   0.40313   0.40840   0.42056   0.42349
 Alpha virt. eigenvalues --    0.42765   0.43434   0.44087   0.44395   0.44638
 Alpha virt. eigenvalues --    0.45373   0.46154   0.46880   0.47998   0.48389
 Alpha virt. eigenvalues --    0.49252   0.50206   0.51967   0.52405   0.52851
 Alpha virt. eigenvalues --    0.53699   0.54582   0.55210   0.55852   0.56219
 Alpha virt. eigenvalues --    0.56927   0.57039   0.57967   0.58949   0.60560
 Alpha virt. eigenvalues --    0.60868   0.61932   0.62267   0.63373   0.63865
 Alpha virt. eigenvalues --    0.65099   0.65490   0.66405   0.67884   0.68058
 Alpha virt. eigenvalues --    0.69280   0.69702   0.70046   0.70753   0.71376
 Alpha virt. eigenvalues --    0.72465   0.72787   0.73195   0.73387   0.73908
 Alpha virt. eigenvalues --    0.74178   0.74337   0.74783   0.75435   0.76135
 Alpha virt. eigenvalues --    0.76504   0.77163   0.77415   0.78285   0.78349
 Alpha virt. eigenvalues --    0.78921   0.79665   0.80303   0.80489   0.83007
 Alpha virt. eigenvalues --    0.83810   0.83915   0.84577   0.85081   0.85611
 Alpha virt. eigenvalues --    0.85950   0.86230   0.87347   0.87737   0.87984
 Alpha virt. eigenvalues --    0.89218   0.89913   0.90721   0.90974   0.91497
 Alpha virt. eigenvalues --    0.92360   0.93718   0.94226   0.94238   0.94518
 Alpha virt. eigenvalues --    0.94994   0.95178   0.95690   0.97449   0.97911
 Alpha virt. eigenvalues --    0.97981   0.99303   0.99504   1.00379   1.01342
 Alpha virt. eigenvalues --    1.01762   1.03244   1.03458   1.04094   1.04570
 Alpha virt. eigenvalues --    1.05561   1.06004   1.06575   1.07120   1.09169
 Alpha virt. eigenvalues --    1.09680   1.10708   1.11848   1.12497   1.12704
 Alpha virt. eigenvalues --    1.12906   1.14268   1.14705   1.15430   1.16921
 Alpha virt. eigenvalues --    1.18262   1.19222   1.19837   1.20529   1.21421
 Alpha virt. eigenvalues --    1.22404   1.22928   1.24273   1.24311   1.25088
 Alpha virt. eigenvalues --    1.28011   1.28039   1.28772   1.31068   1.32847
 Alpha virt. eigenvalues --    1.33154   1.33199   1.35141   1.36781   1.37111
 Alpha virt. eigenvalues --    1.38031   1.38792   1.39681   1.42570   1.42632
 Alpha virt. eigenvalues --    1.42943   1.43174   1.44627   1.46053   1.48410
 Alpha virt. eigenvalues --    1.49030   1.50039   1.50807   1.52177   1.52591
 Alpha virt. eigenvalues --    1.53428   1.54066   1.55472   1.56588   1.56652
 Alpha virt. eigenvalues --    1.57855   1.58437   1.59809   1.61030   1.62841
 Alpha virt. eigenvalues --    1.64066   1.64737   1.65337   1.65881   1.66943
 Alpha virt. eigenvalues --    1.67971   1.68223   1.69634   1.70116   1.71140
 Alpha virt. eigenvalues --    1.72584   1.73196   1.74534   1.76359   1.76984
 Alpha virt. eigenvalues --    1.78161   1.79678   1.80526   1.82065   1.82738
 Alpha virt. eigenvalues --    1.83347   1.84061   1.84139   1.86311   1.88281
 Alpha virt. eigenvalues --    1.89493   1.90871   1.91504   1.92518   1.93294
 Alpha virt. eigenvalues --    1.93665   1.95100   1.97001   1.97947   1.97992
 Alpha virt. eigenvalues --    2.00246   2.01947   2.03174   2.05149   2.05846
 Alpha virt. eigenvalues --    2.08651   2.09405   2.10590   2.10968   2.12723
 Alpha virt. eigenvalues --    2.14741   2.15715   2.18331   2.20967   2.22208
 Alpha virt. eigenvalues --    2.22846   2.23738   2.25429   2.26885   2.27698
 Alpha virt. eigenvalues --    2.29124   2.30615   2.32397   2.33562   2.33812
 Alpha virt. eigenvalues --    2.35784   2.36290   2.38292   2.40080   2.41035
 Alpha virt. eigenvalues --    2.42555   2.42995   2.44021   2.46242   2.47054
 Alpha virt. eigenvalues --    2.48988   2.52049   2.52518   2.54248   2.54346
 Alpha virt. eigenvalues --    2.56003   2.58082   2.62011   2.62250   2.66869
 Alpha virt. eigenvalues --    2.68337   2.68838   2.70831   2.73490   2.73535
 Alpha virt. eigenvalues --    2.74460   2.76957   2.80621   2.80972   2.82876
 Alpha virt. eigenvalues --    2.83750   2.87335   2.88942   2.89096   2.89787
 Alpha virt. eigenvalues --    2.91444   2.92534   2.93470   2.95979   2.96076
 Alpha virt. eigenvalues --    2.97419   2.98299   2.99645   3.01321   3.01674
 Alpha virt. eigenvalues --    3.03459   3.05538   3.06659   3.06965   3.08513
 Alpha virt. eigenvalues --    3.11215   3.11345   3.12976   3.13539   3.13753
 Alpha virt. eigenvalues --    3.15129   3.16090   3.16785   3.19268   3.19590
 Alpha virt. eigenvalues --    3.22002   3.23066   3.23237   3.24568   3.26143
 Alpha virt. eigenvalues --    3.27128   3.28309   3.30495   3.30897   3.34459
 Alpha virt. eigenvalues --    3.35133   3.36734   3.37555   3.40595   3.40880
 Alpha virt. eigenvalues --    3.42481   3.43940   3.45269   3.47802   3.50088
 Alpha virt. eigenvalues --    3.50331   3.51638   3.53597   3.53924   3.55185
 Alpha virt. eigenvalues --    3.56715   3.57971   3.59964   3.59968   3.62205
 Alpha virt. eigenvalues --    3.63113   3.64106   3.64597   3.66218   3.67701
 Alpha virt. eigenvalues --    3.69568   3.70448   3.72312   3.75217   3.76912
 Alpha virt. eigenvalues --    3.78150   3.78748   3.81839   3.82241   3.82589
 Alpha virt. eigenvalues --    3.83592   3.85480   3.85589   3.88384   3.89113
 Alpha virt. eigenvalues --    3.90070   3.90331   3.92533   3.96066   3.97699
 Alpha virt. eigenvalues --    3.98592   4.00067   4.00278   4.01303   4.02582
 Alpha virt. eigenvalues --    4.03682   4.04026   4.04410   4.06942   4.09930
 Alpha virt. eigenvalues --    4.11375   4.12275   4.13846   4.14937   4.16165
 Alpha virt. eigenvalues --    4.19168   4.20619   4.23972   4.24206   4.25052
 Alpha virt. eigenvalues --    4.29020   4.32653   4.34662   4.35565   4.36550
 Alpha virt. eigenvalues --    4.37955   4.40528   4.44588   4.45397   4.47608
 Alpha virt. eigenvalues --    4.48822   4.50973   4.56497   4.56568   4.59208
 Alpha virt. eigenvalues --    4.59830   4.61978   4.62109   4.64203   4.66355
 Alpha virt. eigenvalues --    4.69541   4.70414   4.73277   4.73306   4.75647
 Alpha virt. eigenvalues --    4.76306   4.77560   4.78141   4.81505   4.83672
 Alpha virt. eigenvalues --    4.88023   4.89117   4.89711   4.98271   4.99244
 Alpha virt. eigenvalues --    5.00115   5.01698   5.02973   5.03377   5.06324
 Alpha virt. eigenvalues --    5.06578   5.08758   5.13710   5.24219   5.25336
 Alpha virt. eigenvalues --    5.32882   5.37421   5.38159   5.41807   5.52308
 Alpha virt. eigenvalues --    5.61549   5.64814   5.71800   5.72804   5.79501
 Alpha virt. eigenvalues --    5.82179   5.89834   5.97511   6.01527   6.06936
 Alpha virt. eigenvalues --    6.18422   6.21288   6.25402   6.27239   6.37022
 Alpha virt. eigenvalues --    6.38744   6.43002   6.44038   6.47251   6.54700
 Alpha virt. eigenvalues --    6.58269   6.61015   6.69810   6.70747   6.75840
 Alpha virt. eigenvalues --    6.77371   6.82279   6.85319   6.88083   6.91565
 Alpha virt. eigenvalues --    6.97904   7.09146   7.12577   7.13250   7.14209
 Alpha virt. eigenvalues --    7.30961   7.38811   7.52251   7.68640   7.86811
 Alpha virt. eigenvalues --    7.98860   8.57781  15.49357  15.53727  16.83487
 Alpha virt. eigenvalues --   17.57289  17.89488  18.92228  19.63816  20.05719
 Alpha virt. eigenvalues --   20.44319
          Condensed to atoms (all electrons):
               1          2          3          4          5          6
     1  C    7.924314   0.471202  -0.180796  -0.441499  -0.062965  -0.797700
     2  C    0.471202   6.687789  -0.038481  -0.171069  -0.424279  -0.230121
     3  C   -0.180796  -0.038481   6.545242   0.145251  -0.159997  -0.342529
     4  C   -0.441499  -0.171069   0.145251   7.226196  -0.164180  -0.292496
     5  C   -0.062965  -0.424279  -0.159997  -0.164180   7.384424  -0.400362
     6  C   -0.797700  -0.230121  -0.342529  -0.292496  -0.400362   7.374327
     7  C   -0.596599   0.134475   0.061614   0.231310  -0.705872  -0.668025
     8  O    0.137513  -0.001108  -0.008648  -0.036493  -0.014735  -0.220696
     9  O   -0.016985  -0.013947  -0.002433   0.001877  -0.004127  -0.078593
    10  Cl   0.044053   0.012201   0.078123  -0.117785   0.173497  -0.103335
    11  H    0.532491  -0.124277   0.112012   0.001424  -0.110971  -0.420291
    12  H   -0.179575   0.495309  -0.509298  -0.040523  -0.044149   0.208204
    13  H    0.007046  -0.374256   0.474989  -0.143395   0.170401  -0.070378
    14  H   -0.020130   0.025257  -0.211958   0.590051  -0.263463   0.027517
    15  H   -0.038681  -0.005032   0.001760   0.007144   0.010711   0.045780
               7          8          9         10         11         12
     1  C   -0.596599   0.137513  -0.016985   0.044053   0.532491  -0.179575
     2  C    0.134475  -0.001108  -0.013947   0.012201  -0.124277   0.495309
     3  C    0.061614  -0.008648  -0.002433   0.078123   0.112012  -0.509298
     4  C    0.231310  -0.036493   0.001877  -0.117785   0.001424  -0.040523
     5  C   -0.705872  -0.014735  -0.004127   0.173497  -0.110971  -0.044149
     6  C   -0.668025  -0.220696  -0.078593  -0.103335  -0.420291   0.208204
     7  C    7.429515   0.043546   0.133688  -0.101902   0.164262  -0.001191
     8  O    0.043546   9.291047  -0.150271  -0.000346  -0.040289  -0.002906
     9  O    0.133688  -0.150271   8.537456  -0.098550  -0.005096   0.000274
    10  Cl  -0.101902  -0.000346  -0.098550  17.431238   0.004472  -0.001661
    11  H    0.164262  -0.040289  -0.005096   0.004472   0.895442  -0.125593
    12  H   -0.001191  -0.002906   0.000274  -0.001661  -0.125593   1.067377
    13  H   -0.010106   0.000536   0.000123   0.000046   0.004953  -0.116056
    14  H    0.022368  -0.000843  -0.001062  -0.081153   0.000273   0.001090
    15  H    0.018899  -0.089108   0.165940   0.011740  -0.002067   0.000241
              13         14         15
     1  C    0.007046  -0.020130  -0.038681
     2  C   -0.374256   0.025257  -0.005032
     3  C    0.474989  -0.211958   0.001760
     4  C   -0.143395   0.590051   0.007144
     5  C    0.170401  -0.263463   0.010711
     6  C   -0.070378   0.027517   0.045780
     7  C   -0.010106   0.022368   0.018899
     8  O    0.000536  -0.000843  -0.089108
     9  O    0.000123  -0.001062   0.165940
    10  Cl   0.000046  -0.081153   0.011740
    11  H    0.004953   0.000273  -0.002067
    12  H   -0.116056   0.001090   0.000241
    13  H    0.841050  -0.055055  -0.000078
    14  H   -0.055055   0.691492   0.000084
    15  H   -0.000078   0.000084   0.596733
 Mulliken charges:
               1
     1  C   -0.781689
     2  C   -0.443663
     3  C    0.035149
     4  C   -0.795813
     5  C    0.616068
     6  C    1.968700
     7  C   -0.155982
     8  O   -0.907199
     9  O   -0.468292
    10  Cl  -0.250636
    11  H    0.113253
    12  H    0.248457
    13  H    0.270180
    14  H    0.275532
    15  H    0.275935
 Sum of Mulliken charges =   0.00000
 Mulliken charges with hydrogens summed into heavy atoms:
               1
     1  C   -0.668437
     2  C   -0.195206
     3  C    0.305329
     4  C   -0.520281
     5  C    0.616068
     6  C    1.968700
     7  C   -0.155982
     8  O   -0.907199
     9  O   -0.192357
    10  Cl  -0.250636
 Electronic spatial extent (au):  <R**2>=           1514.7713
 Charge=              0.0000 electrons
 Dipole moment (field-independent basis, Debye):
    X=              2.5333    Y=              0.4517    Z=             -0.0001  Tot=              2.5732
 Quadrupole moment (field-independent basis, Debye-Ang):
   XX=            -52.7574   YY=            -67.6364   ZZ=            -65.4163
   XY=             -3.0105   XZ=              0.0006   YZ=             -0.0001
 Traceless Quadrupole moment (field-independent basis, Debye-Ang):
   XX=              9.1793   YY=             -5.6997   ZZ=             -3.4796
   XY=             -3.0105   XZ=              0.0006   YZ=             -0.0001
 Octapole moment (field-independent basis, Debye-Ang**2):
  XXX=            -22.1964  YYY=             13.1089  ZZZ=              0.0003  XYY=             14.9220
  XXY=              2.4716  XXZ=             -0.0005  XZZ=            -10.8492  YZZ=              0.9358
  YYZ=              0.0005  XYZ=             -0.0007
 Hexadecapole moment (field-independent basis, Debye-Ang**3):
 XXXX=           -852.6395 YYYY=           -825.2123 ZZZZ=            -69.3457 XXXY=             11.3355
 XXXZ=              0.0072 YYYX=            -46.5749 YYYZ=             -0.0016 ZZZX=              0.0000
 ZZZY=             -0.0003 XXYY=           -318.1539 XXZZ=           -201.8738 YYZZ=           -154.7129
 XXYZ=              0.0006 YYXZ=              0.0003 ZZXY=              4.8921
 N-N= 5.846258297582D+02 E-N=-3.244869688676D+03  KE= 8.782167503620D+02
 ******************************Gaussian NBO Version 3.1******************************
             N A T U R A L   A T O M I C   O R B I T A L   A N D
          N A T U R A L   B O N D   O R B I T A L   A N A L Y S I S
 ******************************Gaussian NBO Version 3.1******************************
       /RESON  / : Allow strongly delocalized NBO set

 Analyzing the SCF density

 Job title: o-Cl                                                            

 Storage needed:   1008201 in NPA,   1342976 in NBO (********** available)
 GSVD:  LWork=       38799 too small for GESVD, short by      550638 words or      550638 for optimal perf.


 NATURAL POPULATIONS:  Natural atomic orbital occupancies 
                                                          
   NAO  Atom  No  lang   Type(AO)    Occupancy      Energy
 ----------------------------------------------------------
     1    C    1  S      Cor( 1S)     1.99910     -10.39672
     2    C    1  S      Val( 2S)     0.94193      -0.19250
     3    C    1  S      Ryd( 4S)     0.00142       1.93180
     4    C    1  S      Ryd( 5S)     0.00011       2.69751
     5    C    1  S      Ryd( 3S)     0.00002       1.86847
     6    C    1  px     Val( 2p)     1.05372      -0.06887
     7    C    1  px     Ryd( 4p)     0.00357       1.93106
     8    C    1  px     Ryd( 5p)     0.00006       2.24709
     9    C    1  px     Ryd( 3p)     0.00008       1.29583
    10    C    1  py     Val( 2p)     1.16450      -0.08597
    11    C    1  py     Ryd( 4p)     0.00509       1.81636
    12    C    1  py     Ryd( 5p)     0.00005       2.18648
    13    C    1  py     Ryd( 3p)     0.00007       1.57630
    14    C    1  pz     Val( 2p)     0.92799      -0.12902
    15    C    1  pz     Ryd( 4p)     0.00061       1.03753
    16    C    1  pz     Ryd( 5p)     0.00007       1.32878
    17    C    1  pz     Ryd( 3p)     0.00001       0.92007
    18    C    1  dxy    Ryd( 4d)     0.00162       3.35560
    19    C    1  dxy    Ryd( 5d)     0.00020       3.96916
    20    C    1  dxy    Ryd( 3d)     0.00007       2.97485
    21    C    1  dxz    Ryd( 3d)     0.00034       1.47004
    22    C    1  dxz    Ryd( 5d)     0.00006       3.04824
    23    C    1  dxz    Ryd( 4d)     0.00003       2.04080
    24    C    1  dyz    Ryd( 3d)     0.00035       1.41535
    25    C    1  dyz    Ryd( 5d)     0.00005       3.13392
    26    C    1  dyz    Ryd( 4d)     0.00004       1.73895
    27    C    1  dx2y2  Ryd( 3d)     0.00200       2.65065
    28    C    1  dx2y2  Ryd( 4d)     0.00016       3.83995
    29    C    1  dx2y2  Ryd( 5d)     0.00008       3.86724
    30    C    1  dz2    Ryd( 3d)     0.00094       1.75285
    31    C    1  dz2    Ryd( 4d)     0.00011       3.94115
    32    C    1  dz2    Ryd( 5d)     0.00007       4.35476
    33    C    1  f(0)   Ryd( 4f)     0.00011       1.44228
    34    C    1  f(0)   Ryd( 5f)     0.00010       3.44005
    35    C    1  f(C1)  Ryd( 4f)     0.00038       1.95839
    36    C    1  f(C1)  Ryd( 5f)     0.00025       3.72984
    37    C    1  f(S1)  Ryd( 4f)     0.00051       1.73617
    38    C    1  f(S1)  Ryd( 5f)     0.00014       3.58641
    39    C    1  f(C2)  Ryd( 4f)     0.00021       1.56697
    40    C    1  f(C2)  Ryd( 5f)     0.00006       3.48510
    41    C    1  f(S2)  Ryd( 4f)     0.00022       1.40429
    42    C    1  f(S2)  Ryd( 5f)     0.00002       3.49448
    43    C    1  f(C3)  Ryd( 4f)     0.00071       2.36692
    44    C    1  f(C3)  Ryd( 5f)     0.00016       4.19246
    45    C    1  f(S3)  Ryd( 4f)     0.00080       2.20139
    46    C    1  f(S3)  Ryd( 5f)     0.00015       4.19314
 
    47    C    2  S      Cor( 1S)     1.99911     -10.38653
    48    C    2  S      Val( 2S)     0.94627      -0.20037
    49    C    2  S      Ryd( 3S)     0.00136       1.87142
    50    C    2  S      Ryd( 5S)     0.00007       2.95645
    51    C    2  S      Ryd( 4S)     0.00003       1.87216
    52    C    2  px     Val( 2p)     1.11798      -0.08653
    53    C    2  px     Ryd( 5p)     0.00443       1.73105
    54    C    2  px     Ryd( 3p)     0.00005       1.30080
    55    C    2  px     Ryd( 4p)     0.00002       1.47472
    56    C    2  py     Val( 2p)     1.13187      -0.08967
    57    C    2  py     Ryd( 5p)     0.00424       1.74440
    58    C    2  py     Ryd( 3p)     0.00003       1.46957
    59    C    2  py     Ryd( 4p)     0.00002       1.56284
    60    C    2  pz     Val( 2p)     1.00238      -0.13408
    61    C    2  pz     Ryd( 4p)     0.00073       1.03849
    62    C    2  pz     Ryd( 3p)     0.00000       1.02512
    63    C    2  pz     Ryd( 5p)     0.00002       1.10418
    64    C    2  dxy    Ryd( 3d)     0.00186       2.26893
    65    C    2  dxy    Ryd( 5d)     0.00020       3.45550
    66    C    2  dxy    Ryd( 4d)     0.00006       3.05537
    67    C    2  dxz    Ryd( 3d)     0.00035       1.44835
    68    C    2  dxz    Ryd( 5d)     0.00002       2.78677
    69    C    2  dxz    Ryd( 4d)     0.00002       1.72192
    70    C    2  dyz    Ryd( 3d)     0.00038       1.44891
    71    C    2  dyz    Ryd( 5d)     0.00004       2.76572
    72    C    2  dyz    Ryd( 4d)     0.00002       1.81758
    73    C    2  dx2y2  Ryd( 4d)     0.00220       3.38668
    74    C    2  dx2y2  Ryd( 5d)     0.00024       3.55968
    75    C    2  dx2y2  Ryd( 3d)     0.00005       2.19548
    76    C    2  dz2    Ryd( 3d)     0.00109       1.74917
    77    C    2  dz2    Ryd( 5d)     0.00009       4.09499
    78    C    2  dz2    Ryd( 4d)     0.00010       3.33120
    79    C    2  f(0)   Ryd( 5f)     0.00012       3.48812
    80    C    2  f(0)   Ryd( 4f)     0.00001       2.14824
    81    C    2  f(C1)  Ryd( 5f)     0.00021       3.73730
    82    C    2  f(C1)  Ryd( 4f)     0.00002       2.60303
    83    C    2  f(S1)  Ryd( 5f)     0.00024       3.71841
    84    C    2  f(S1)  Ryd( 4f)     0.00002       2.92543
    85    C    2  f(C2)  Ryd( 5f)     0.00001       3.56565
    86    C    2  f(C2)  Ryd( 4f)     0.00001       2.29177
    87    C    2  f(S2)  Ryd( 5f)     0.00002       3.66706
    88    C    2  f(S2)  Ryd( 4f)     0.00001       2.24241
    89    C    2  f(C3)  Ryd( 4f)     0.00012       4.26201
    90    C    2  f(C3)  Ryd( 5f)     0.00008       5.00328
    91    C    2  f(S3)  Ryd( 4f)     0.00011       4.30799
    92    C    2  f(S3)  Ryd( 5f)     0.00009       4.48335
 
    93    C    3  S      Cor( 1S)     1.99908     -10.39432
    94    C    3  S      Val( 2S)     0.94908      -0.20644
    95    C    3  S      Ryd( 3S)     0.00121       1.95189
    96    C    3  S      Ryd( 5S)     0.00005       2.54201
    97    C    3  S      Ryd( 4S)     0.00002       2.38954
    98    C    3  px     Val( 2p)     1.17579      -0.09834
    99    C    3  px     Ryd( 4p)     0.00546       1.68267
   100    C    3  px     Ryd( 3p)     0.00003       1.55709
   101    C    3  px     Ryd( 5p)     0.00002       1.78191
   102    C    3  py     Val( 2p)     1.06668      -0.07916
   103    C    3  py     Ryd( 5p)     0.00386       1.72592
   104    C    3  py     Ryd( 4p)     0.00001       1.30880
   105    C    3  py     Ryd( 3p)     0.00003       1.28825
   106    C    3  pz     Val( 2p)     0.94559      -0.13368
   107    C    3  pz     Ryd( 3p)     0.00050       1.01225
   108    C    3  pz     Ryd( 4p)     0.00002       1.01954
   109    C    3  pz     Ryd( 5p)     0.00001       1.18036
   110    C    3  dxy    Ryd( 4d)     0.00199       3.39619
   111    C    3  dxy    Ryd( 5d)     0.00021       3.70099
   112    C    3  dxy    Ryd( 3d)     0.00004       2.21691
   113    C    3  dxz    Ryd( 3d)     0.00032       1.48835
   114    C    3  dxz    Ryd( 5d)     0.00004       2.83118
   115    C    3  dxz    Ryd( 4d)     0.00002       1.54243
   116    C    3  dyz    Ryd( 3d)     0.00057       1.50429
   117    C    3  dyz    Ryd( 5d)     0.00001       2.76683
   118    C    3  dyz    Ryd( 4d)     0.00002       1.88897
   119    C    3  dx2y2  Ryd( 3d)     0.00184       2.48881
   120    C    3  dx2y2  Ryd( 5d)     0.00023       3.45827
   121    C    3  dx2y2  Ryd( 4d)     0.00005       2.97120
   122    C    3  dz2    Ryd( 3d)     0.00100       1.87997
   123    C    3  dz2    Ryd( 5d)     0.00006       4.07364
   124    C    3  dz2    Ryd( 4d)     0.00012       3.38122
   125    C    3  f(0)   Ryd( 5f)     0.00010       3.44907
   126    C    3  f(0)   Ryd( 4f)     0.00001       2.19456
   127    C    3  f(C1)  Ryd( 5f)     0.00017       3.66320
   128    C    3  f(C1)  Ryd( 4f)     0.00003       2.62541
   129    C    3  f(S1)  Ryd( 5f)     0.00026       3.71661
   130    C    3  f(S1)  Ryd( 4f)     0.00001       2.91572
   131    C    3  f(C2)  Ryd( 5f)     0.00001       3.62902
   132    C    3  f(C2)  Ryd( 4f)     0.00001       2.27898
   133    C    3  f(S2)  Ryd( 5f)     0.00001       3.55651
   134    C    3  f(S2)  Ryd( 4f)     0.00000       2.34126
   135    C    3  f(C3)  Ryd( 4f)     0.00014       4.23975
   136    C    3  f(C3)  Ryd( 5f)     0.00005       5.07721
   137    C    3  f(S3)  Ryd( 4f)     0.00011       4.29422
   138    C    3  f(S3)  Ryd( 5f)     0.00008       4.42625
 
   139    C    4  S      Cor( 1S)     1.99900     -10.39000
   140    C    4  S      Val( 2S)     0.94622      -0.19964
   141    C    4  S      Ryd( 3S)     0.00190       1.92040
   142    C    4  S      Ryd( 5S)     0.00009       2.67720
   143    C    4  S      Ryd( 4S)     0.00002       2.01050
   144    C    4  px     Val( 2p)     1.08499      -0.09903
   145    C    4  px     Ryd( 5p)     0.00419       1.76994
   146    C    4  px     Ryd( 3p)     0.00008       1.40822
   147    C    4  px     Ryd( 4p)     0.00002       1.61366
   148    C    4  py     Val( 2p)     1.18129      -0.10731
   149    C    4  py     Ryd( 3p)     0.00628       1.71369
   150    C    4  py     Ryd( 5p)     0.00010       1.87241
   151    C    4  py     Ryd( 4p)     0.00004       1.71911
   152    C    4  pz     Val( 2p)     1.00222      -0.13751
   153    C    4  pz     Ryd( 3p)     0.00098       0.92730
   154    C    4  pz     Ryd( 4p)     0.00002       1.07120
   155    C    4  pz     Ryd( 5p)     0.00005       1.14101
   156    C    4  dxy    Ryd( 4d)     0.00230       2.80719
   157    C    4  dxy    Ryd( 5d)     0.00020       4.12785
   158    C    4  dxy    Ryd( 3d)     0.00009       2.22028
   159    C    4  dxz    Ryd( 3d)     0.00004       1.25046
   160    C    4  dxz    Ryd( 5d)     0.00010       3.19203
   161    C    4  dxz    Ryd( 4d)     0.00002       1.46213
   162    C    4  dyz    Ryd( 3d)     0.00042       1.30251
   163    C    4  dyz    Ryd( 5d)     0.00006       3.29513
   164    C    4  dyz    Ryd( 4d)     0.00005       1.32687
   165    C    4  dx2y2  Ryd( 4d)     0.00206       2.62414
   166    C    4  dx2y2  Ryd( 5d)     0.00015       4.15561
   167    C    4  dx2y2  Ryd( 3d)     0.00006       2.32128
   168    C    4  dz2    Ryd( 3d)     0.00099       1.66595
   169    C    4  dz2    Ryd( 5d)     0.00008       4.12913
   170    C    4  dz2    Ryd( 4d)     0.00010       3.99210
   171    C    4  f(0)   Ryd( 4f)     0.00013       1.64837
   172    C    4  f(0)   Ryd( 5f)     0.00011       3.17697
   173    C    4  f(C1)  Ryd( 4f)     0.00067       2.09079
   174    C    4  f(C1)  Ryd( 5f)     0.00019       3.39145
   175    C    4  f(S1)  Ryd( 4f)     0.00063       1.99573
   176    C    4  f(S1)  Ryd( 5f)     0.00010       3.34656
   177    C    4  f(C2)  Ryd( 4f)     0.00012       1.67658
   178    C    4  f(C2)  Ryd( 5f)     0.00004       3.20478
   179    C    4  f(S2)  Ryd( 4f)     0.00028       1.79507
   180    C    4  f(S2)  Ryd( 5f)     0.00007       3.15500
   181    C    4  f(C3)  Ryd( 4f)     0.00062       2.57269
   182    C    4  f(C3)  Ryd( 5f)     0.00016       3.79078
   183    C    4  f(S3)  Ryd( 4f)     0.00079       2.32177
   184    C    4  f(S3)  Ryd( 5f)     0.00026       3.78257
 
   185    C    5  S      Cor( 1S)     1.99846     -10.47074
   186    C    5  S      Val( 2S)     0.91253      -0.22069
   187    C    5  S      Ryd( 3S)     0.00108       1.61574
   188    C    5  S      Ryd( 5S)     0.00017       3.03344
   189    C    5  S      Ryd( 4S)     0.00004       2.30530
   190    C    5  px     Val( 2p)     1.02502      -0.12949
   191    C    5  px     Ryd( 4p)     0.00521       1.60442
   192    C    5  px     Ryd( 5p)     0.00014       3.69996
   193    C    5  px     Ryd( 3p)     0.00010       1.18951
   194    C    5  py     Val( 2p)     0.97478      -0.13054
   195    C    5  py     Ryd( 4p)     0.00578       1.59120
   196    C    5  py     Ryd( 5p)     0.00023       3.20424
   197    C    5  py     Ryd( 3p)     0.00006       1.25862
   198    C    5  pz     Val( 2p)     1.01759      -0.16694
   199    C    5  pz     Ryd( 4p)     0.00133       0.79621
   200    C    5  pz     Ryd( 5p)     0.00019       2.15043
   201    C    5  pz     Ryd( 3p)     0.00006       0.69409
   202    C    5  dxy    Ryd( 3d)     0.00060       2.81568
   203    C    5  dxy    Ryd( 4d)     0.00018       3.67410
   204    C    5  dxy    Ryd( 5d)     0.00014       3.82684
   205    C    5  dxz    Ryd( 3d)     0.00116       1.53996
   206    C    5  dxz    Ryd( 5d)     0.00006       3.00109
   207    C    5  dxz    Ryd( 4d)     0.00003       2.01529
   208    C    5  dyz    Ryd( 3d)     0.00116       1.49098
   209    C    5  dyz    Ryd( 5d)     0.00005       2.99692
   210    C    5  dyz    Ryd( 4d)     0.00005       1.94741
   211    C    5  dx2y2  Ryd( 4d)     0.00181       3.47503
   212    C    5  dx2y2  Ryd( 5d)     0.00029       3.87473
   213    C    5  dx2y2  Ryd( 3d)     0.00013       3.39060
   214    C    5  dz2    Ryd( 3d)     0.00117       1.90174
   215    C    5  dz2    Ryd( 5d)     0.00019       3.77165
   216    C    5  dz2    Ryd( 4d)     0.00009       3.75466
   217    C    5  f(0)   Ryd( 4f)     0.00116       1.33104
   218    C    5  f(0)   Ryd( 5f)     0.00007       3.45159
   219    C    5  f(C1)  Ryd( 4f)     0.00103       1.79259
   220    C    5  f(C1)  Ryd( 5f)     0.00020       3.62350
   221    C    5  f(S1)  Ryd( 4f)     0.00108       1.71590
   222    C    5  f(S1)  Ryd( 5f)     0.00020       3.56643
   223    C    5  f(C2)  Ryd( 4f)     0.00063       1.22740
   224    C    5  f(C2)  Ryd( 5f)     0.00002       3.52934
   225    C    5  f(S2)  Ryd( 4f)     0.00074       1.32503
   226    C    5  f(S2)  Ryd( 5f)     0.00010       3.49866
   227    C    5  f(C3)  Ryd( 4f)     0.00157       2.64947
   228    C    5  f(C3)  Ryd( 5f)     0.00017       4.16337
   229    C    5  f(S3)  Ryd( 4f)     0.00201       2.05053
   230    C    5  f(S3)  Ryd( 5f)     0.00030       4.24520
 
   231    C    6  S      Cor( 1S)     1.99871     -10.39056
   232    C    6  S      Val( 2S)     0.88899      -0.13300
   233    C    6  S      Ryd( 3S)     0.00110       1.99929
   234    C    6  S      Ryd( 4S)     0.00008       2.59796
   235    C    6  S      Ryd( 5S)     0.00004       3.72204
   236    C    6  px     Val( 2p)     1.11535      -0.12976
   237    C    6  px     Ryd( 4p)     0.00611       2.46213
   238    C    6  px     Ryd( 5p)     0.00006       2.56563
   239    C    6  px     Ryd( 3p)     0.00006       1.15722
   240    C    6  py     Val( 2p)     1.14058      -0.13211
   241    C    6  py     Ryd( 4p)     0.00526       2.19446
   242    C    6  py     Ryd( 5p)     0.00009       2.51107
   243    C    6  py     Ryd( 3p)     0.00004       0.97935
   244    C    6  pz     Val( 2p)     1.08437      -0.15093
   245    C    6  pz     Ryd( 4p)     0.00160       0.94002
   246    C    6  pz     Ryd( 5p)     0.00009       2.06615
   247    C    6  pz     Ryd( 3p)     0.00003       0.55211
   248    C    6  dxy    Ryd( 3d)     0.00081       2.95641
   249    C    6  dxy    Ryd( 4d)     0.00039       3.88354
   250    C    6  dxy    Ryd( 5d)     0.00006       5.94506
   251    C    6  dxz    Ryd( 3d)     0.00018       1.39278
   252    C    6  dxz    Ryd( 5d)     0.00013       3.08593
   253    C    6  dxz    Ryd( 4d)     0.00006       2.39350
   254    C    6  dyz    Ryd( 3d)     0.00021       1.25356
   255    C    6  dyz    Ryd( 5d)     0.00019       2.99050
   256    C    6  dyz    Ryd( 4d)     0.00003       2.52985
   257    C    6  dx2y2  Ryd( 3d)     0.00190       2.89408
   258    C    6  dx2y2  Ryd( 4d)     0.00031       3.83064
   259    C    6  dx2y2  Ryd( 5d)     0.00002       5.25453
   260    C    6  dz2    Ryd( 3d)     0.00075       1.40829
   261    C    6  dz2    Ryd( 4d)     0.00017       3.93764
   262    C    6  dz2    Ryd( 5d)     0.00006       4.11280
   263    C    6  f(0)   Ryd( 4f)     0.00034       1.64410
   264    C    6  f(0)   Ryd( 5f)     0.00038       3.44253
   265    C    6  f(C1)  Ryd( 4f)     0.00052       2.11141
   266    C    6  f(C1)  Ryd( 5f)     0.00048       3.59402
   267    C    6  f(S1)  Ryd( 4f)     0.00097       2.19272
   268    C    6  f(S1)  Ryd( 5f)     0.00033       3.72253
   269    C    6  f(C2)  Ryd( 4f)     0.00063       1.51852
   270    C    6  f(C2)  Ryd( 5f)     0.00004       3.38165
   271    C    6  f(S2)  Ryd( 4f)     0.00066       1.56426
   272    C    6  f(S2)  Ryd( 5f)     0.00005       3.39557
   273    C    6  f(C3)  Ryd( 4f)     0.00156       3.12136
   274    C    6  f(C3)  Ryd( 5f)     0.00014       4.64777
   275    C    6  f(S3)  Ryd( 4f)     0.00169       2.79084
   276    C    6  f(S3)  Ryd( 5f)     0.00025       4.50089
 
   277    C    7  S      Cor( 1S)     1.99911     -10.54159
   278    C    7  S      Val( 2S)     0.77709      -0.10724
   279    C    7  S      Ryd( 4S)     0.00409       2.03577
   280    C    7  S      Ryd( 3S)     0.00010       2.02160
   281    C    7  S      Ryd( 5S)     0.00007       2.39915
   282    C    7  px     Val( 2p)     0.88840      -0.04802
   283    C    7  px     Ryd( 5p)     0.00442       1.68121
   284    C    7  px     Ryd( 3p)     0.00023       1.18894
   285    C    7  px     Ryd( 4p)     0.00002       1.66249
   286    C    7  py     Val( 2p)     0.75209      -0.03038
   287    C    7  py     Ryd( 4p)     0.01365       1.61427
   288    C    7  py     Ryd( 3p)     0.00010       1.15680
   289    C    7  py     Ryd( 5p)     0.00005       1.91576
   290    C    7  pz     Val( 2p)     0.75872      -0.12897
   291    C    7  pz     Ryd( 5p)     0.00051       1.15748
   292    C    7  pz     Ryd( 3p)     0.00009       0.58211
   293    C    7  pz     Ryd( 4p)     0.00004       1.12669
   294    C    7  dxy    Ryd( 4d)     0.00114       3.30479
   295    C    7  dxy    Ryd( 3d)     0.00038       2.71102
   296    C    7  dxy    Ryd( 5d)     0.00005       3.63957
   297    C    7  dxz    Ryd( 4d)     0.00121       2.32374
   298    C    7  dxz    Ryd( 3d)     0.00006       1.88177
   299    C    7  dxz    Ryd( 5d)     0.00005       2.47006
   300    C    7  dyz    Ryd( 4d)     0.00156       2.47787
   301    C    7  dyz    Ryd( 3d)     0.00009       2.02419
   302    C    7  dyz    Ryd( 5d)     0.00005       2.57159
   303    C    7  dx2y2  Ryd( 4d)     0.00144       3.20479
   304    C    7  dx2y2  Ryd( 3d)     0.00025       2.50129
   305    C    7  dx2y2  Ryd( 5d)     0.00010       3.84855
   306    C    7  dz2    Ryd( 4d)     0.00037       3.23722
   307    C    7  dz2    Ryd( 3d)     0.00062       2.68345
   308    C    7  dz2    Ryd( 5d)     0.00010       3.76066
   309    C    7  f(0)   Ryd( 4f)     0.00008       1.49449
   310    C    7  f(0)   Ryd( 5f)     0.00012       3.72378
   311    C    7  f(C1)  Ryd( 4f)     0.00037       1.67870
   312    C    7  f(C1)  Ryd( 5f)     0.00017       3.86141
   313    C    7  f(S1)  Ryd( 4f)     0.00032       1.70382
   314    C    7  f(S1)  Ryd( 5f)     0.00009       3.76145
   315    C    7  f(C2)  Ryd( 4f)     0.00076       1.42187
   316    C    7  f(C2)  Ryd( 5f)     0.00001       3.65282
   317    C    7  f(S2)  Ryd( 4f)     0.00057       1.54350
   318    C    7  f(S2)  Ryd( 5f)     0.00002       3.74720
   319    C    7  f(C3)  Ryd( 4f)     0.00143       2.61316
   320    C    7  f(C3)  Ryd( 5f)     0.00008       4.78161
   321    C    7  f(S3)  Ryd( 4f)     0.00118       2.47363
   322    C    7  f(S3)  Ryd( 5f)     0.00005       4.81206
 
   323    O    8  S      Cor( 1S)     1.99979     -19.32448
   324    O    8  S      Val( 2S)     1.70761      -1.00061
   325    O    8  S      Ryd( 4S)     0.00062       2.82264
   326    O    8  S      Ryd( 3S)     0.00017       1.56433
   327    O    8  S      Ryd( 5S)     0.00002      10.08947
   328    O    8  px     Val( 2p)     1.83345      -0.34010
   329    O    8  px     Ryd( 4p)     0.00162       1.40894
   330    O    8  px     Ryd( 3p)     0.00011       1.01403
   331    O    8  px     Ryd( 5p)     0.00004       4.60772
   332    O    8  py     Val( 2p)     1.58317      -0.33390
   333    O    8  py     Ryd( 4p)     0.00106       1.80618
   334    O    8  py     Ryd( 3p)     0.00010       0.94122
   335    O    8  py     Ryd( 5p)     0.00007       5.08182
   336    O    8  pz     Val( 2p)     1.45864      -0.28903
   337    O    8  pz     Ryd( 4p)     0.00066       1.12957
   338    O    8  pz     Ryd( 3p)     0.00001       0.65640
   339    O    8  pz     Ryd( 5p)     0.00001       4.00979
   340    O    8  dxy    Ryd( 3d)     0.00640       2.06224
   341    O    8  dxy    Ryd( 4d)     0.00012       2.92674
   342    O    8  dxy    Ryd( 5d)     0.00005       6.37202
   343    O    8  dxz    Ryd( 3d)     0.00086       1.54121
   344    O    8  dxz    Ryd( 4d)     0.00002       1.77989
   345    O    8  dxz    Ryd( 5d)     0.00001       6.34069
   346    O    8  dyz    Ryd( 3d)     0.00633       1.60737
   347    O    8  dyz    Ryd( 4d)     0.00004       1.93426
   348    O    8  dyz    Ryd( 5d)     0.00003       6.22775
   349    O    8  dx2y2  Ryd( 3d)     0.00715       2.01339
   350    O    8  dx2y2  Ryd( 4d)     0.00011       3.36640
   351    O    8  dx2y2  Ryd( 5d)     0.00002       6.40187
   352    O    8  dz2    Ryd( 3d)     0.00288       1.73744
   353    O    8  dz2    Ryd( 4d)     0.00008       2.83351
   354    O    8  dz2    Ryd( 5d)     0.00001       6.42466
   355    O    8  f(0)   Ryd( 4f)     0.00013       3.27940
   356    O    8  f(0)   Ryd( 5f)     0.00000       5.45442
   357    O    8  f(C1)  Ryd( 4f)     0.00005       3.36376
   358    O    8  f(C1)  Ryd( 5f)     0.00002       5.56417
   359    O    8  f(S1)  Ryd( 4f)     0.00015       3.98911
   360    O    8  f(S1)  Ryd( 5f)     0.00001       5.85205
   361    O    8  f(C2)  Ryd( 4f)     0.00020       3.31627
   362    O    8  f(C2)  Ryd( 5f)     0.00001       5.65842
   363    O    8  f(S2)  Ryd( 4f)     0.00015       3.27301
   364    O    8  f(S2)  Ryd( 5f)     0.00001       5.71839
   365    O    8  f(C3)  Ryd( 4f)     0.00037       4.23583
   366    O    8  f(C3)  Ryd( 5f)     0.00001       6.06225
   367    O    8  f(S3)  Ryd( 4f)     0.00032       3.83861
   368    O    8  f(S3)  Ryd( 5f)     0.00003       5.94271
 
   369    O    9  S      Cor( 1S)     1.99978     -19.45208
   370    O    9  S      Val( 2S)     1.67633      -1.02890
   371    O    9  S      Ryd( 3S)     0.00043       1.52458
   372    O    9  S      Ryd( 4S)     0.00011       2.42817
   373    O    9  S      Ryd( 5S)     0.00001      11.18845
   374    O    9  px     Val( 2p)     1.41288      -0.34786
   375    O    9  px     Ryd( 4p)     0.00071       1.19785
   376    O    9  px     Ryd( 3p)     0.00012       0.71878
   377    O    9  px     Ryd( 5p)     0.00003       5.43392
   378    O    9  py     Val( 2p)     1.74317      -0.40267
   379    O    9  py     Ryd( 4p)     0.00107       1.06355
   380    O    9  py     Ryd( 3p)     0.00010       0.69080
   381    O    9  py     Ryd( 5p)     0.00010       5.06644
   382    O    9  pz     Val( 2p)     1.83783      -0.40617
   383    O    9  pz     Ryd( 4p)     0.00110       0.89075
   384    O    9  pz     Ryd( 3p)     0.00002       0.47503
   385    O    9  pz     Ryd( 5p)     0.00001       4.22430
   386    O    9  dxy    Ryd( 3d)     0.00724       2.16435
   387    O    9  dxy    Ryd( 4d)     0.00010       2.48185
   388    O    9  dxy    Ryd( 5d)     0.00005       7.02775
   389    O    9  dxz    Ryd( 3d)     0.00007       1.35037
   390    O    9  dxz    Ryd( 4d)     0.00005       1.77805
   391    O    9  dxz    Ryd( 5d)     0.00002       6.59398
   392    O    9  dyz    Ryd( 3d)     0.00491       1.37406
   393    O    9  dyz    Ryd( 4d)     0.00001       1.58910
   394    O    9  dyz    Ryd( 5d)     0.00003       6.58416
   395    O    9  dx2y2  Ryd( 3d)     0.00283       1.78514
   396    O    9  dx2y2  Ryd( 4d)     0.00010       2.14424
   397    O    9  dx2y2  Ryd( 5d)     0.00006       6.84862
   398    O    9  dz2    Ryd( 3d)     0.00299       1.60205
   399    O    9  dz2    Ryd( 4d)     0.00014       2.21650
   400    O    9  dz2    Ryd( 5d)     0.00001       6.86310
   401    O    9  f(0)   Ryd( 4f)     0.00050       2.87898
   402    O    9  f(0)   Ryd( 5f)     0.00001       5.89727
   403    O    9  f(C1)  Ryd( 4f)     0.00022       3.59624
   404    O    9  f(C1)  Ryd( 5f)     0.00001       6.20282
   405    O    9  f(S1)  Ryd( 4f)     0.00012       3.58670
   406    O    9  f(S1)  Ryd( 5f)     0.00001       6.20665
   407    O    9  f(C2)  Ryd( 4f)     0.00004       2.95166
   408    O    9  f(C2)  Ryd( 5f)     0.00000       6.20914
   409    O    9  f(S2)  Ryd( 4f)     0.00004       3.02451
   410    O    9  f(S2)  Ryd( 5f)     0.00001       5.97668
   411    O    9  f(C3)  Ryd( 4f)     0.00003       3.87546
   412    O    9  f(C3)  Ryd( 5f)     0.00002       6.41235
   413    O    9  f(S3)  Ryd( 4f)     0.00016       4.64776
   414    O    9  f(S3)  Ryd( 5f)     0.00005       6.56137
 
   415   Cl   10  S      Cor( 1S)     2.00000    -101.21743
   416   Cl   10  S      Cor( 2S)     1.99975     -10.99244
   417   Cl   10  S      Val( 3S)     1.82704      -1.05648
   418   Cl   10  S      Ryd( 5S)     0.00209       1.69185
   419   Cl   10  S      Ryd( 4S)     0.00011       1.38365
   420   Cl   10  S      Ryd( 6S)     0.00001       5.74442
   421   Cl   10  px     Cor( 2p)     1.99997      -7.53435
   422   Cl   10  px     Val( 3p)     1.74468      -0.35510
   423   Cl   10  px     Ryd( 4p)     0.00180       0.71802
   424   Cl   10  px     Ryd( 5p)     0.00015       0.77754
   425   Cl   10  px     Ryd( 6p)     0.00002       2.80925
   426   Cl   10  py     Cor( 2p)     1.99994      -7.53616
   427   Cl   10  py     Val( 3p)     1.45541      -0.32144
   428   Cl   10  py     Ryd( 5p)     0.00167       0.71925
   429   Cl   10  py     Ryd( 4p)     0.00006       0.60413
   430   Cl   10  py     Ryd( 6p)     0.00005       2.88712
   431   Cl   10  pz     Cor( 2p)     1.99999      -7.53385
   432   Cl   10  pz     Val( 3p)     1.91859      -0.38571
   433   Cl   10  pz     Ryd( 5p)     0.00203       0.64055
   434   Cl   10  pz     Ryd( 4p)     0.00004       0.57232
   435   Cl   10  pz     Ryd( 6p)     0.00001       2.45664
   436   Cl   10  dxy    Ryd( 4d)     0.00284       1.88273
   437   Cl   10  dxy    Ryd( 3d)     0.00007       1.38885
   438   Cl   10  dxy    Ryd( 5d)     0.00003       2.49376
   439   Cl   10  dxz    Ryd( 4d)     0.00055       1.30260
   440   Cl   10  dxz    Ryd( 3d)     0.00009       0.89594
   441   Cl   10  dxz    Ryd( 5d)     0.00002       2.23364
   442   Cl   10  dyz    Ryd( 4d)     0.00092       1.39390
   443   Cl   10  dyz    Ryd( 3d)     0.00018       1.02971
   444   Cl   10  dyz    Ryd( 5d)     0.00002       2.35744
   445   Cl   10  dx2y2  Ryd( 4d)     0.00097       2.24794
   446   Cl   10  dx2y2  Ryd( 3d)     0.00014       1.25403
   447   Cl   10  dx2y2  Ryd( 5d)     0.00004       2.75947
   448   Cl   10  dz2    Ryd( 4d)     0.00115       1.42618
   449   Cl   10  dz2    Ryd( 3d)     0.00013       1.42505
   450   Cl   10  dz2    Ryd( 5d)     0.00002       2.50127
   451   Cl   10  f(0)   Ryd( 4f)     0.00006       1.29755
   452   Cl   10  f(0)   Ryd( 5f)     0.00003       2.88124
   453   Cl   10  f(C1)  Ryd( 4f)     0.00003       1.49179
   454   Cl   10  f(C1)  Ryd( 5f)     0.00003       2.95810
   455   Cl   10  f(S1)  Ryd( 4f)     0.00002       1.65738
   456   Cl   10  f(S1)  Ryd( 5f)     0.00006       2.95300
   457   Cl   10  f(C2)  Ryd( 4f)     0.00004       1.39274
   458   Cl   10  f(C2)  Ryd( 5f)     0.00001       2.85984
   459   Cl   10  f(S2)  Ryd( 4f)     0.00009       1.32412
   460   Cl   10  f(S2)  Ryd( 5f)     0.00005       2.89424
   461   Cl   10  f(C3)  Ryd( 4f)     0.00004       1.80501
   462   Cl   10  f(C3)  Ryd( 5f)     0.00009       3.07258
   463   Cl   10  f(S3)  Ryd( 4f)     0.00018       1.50843
   464   Cl   10  f(S3)  Ryd( 5f)     0.00006       3.07616
 
   465    H   11  S      Val( 1S)     0.75242       0.04918
   466    H   11  S      Ryd( 4S)     0.00047       1.98550
   467    H   11  S      Ryd( 2S)     0.00012       0.76087
   468    H   11  S      Ryd( 3S)     0.00004       1.64697
   469    H   11  px     Ryd( 2p)     0.00052       1.03730
   470    H   11  px     Ryd( 4p)     0.00007       4.15655
   471    H   11  px     Ryd( 3p)     0.00009       3.00948
   472    H   11  py     Ryd( 2p)     0.00070       0.90247
   473    H   11  py     Ryd( 3p)     0.00022       4.23323
   474    H   11  py     Ryd( 4p)     0.00004       4.34408
   475    H   11  pz     Ryd( 2p)     0.00012       0.61741
   476    H   11  pz     Ryd( 4p)     0.00002       3.94035
   477    H   11  pz     Ryd( 3p)     0.00003       2.07217
   478    H   11  dxy    Ryd( 3d)     0.00004       2.06005
   479    H   11  dxy    Ryd( 4d)     0.00002       4.53416
   480    H   11  dxz    Ryd( 3d)     0.00003       1.52918
   481    H   11  dxz    Ryd( 4d)     0.00000       3.72057
   482    H   11  dyz    Ryd( 3d)     0.00001       1.65736
   483    H   11  dyz    Ryd( 4d)     0.00001       4.05611
   484    H   11  dx2y2  Ryd( 3d)     0.00006       2.36841
   485    H   11  dx2y2  Ryd( 4d)     0.00003       4.55432
   486    H   11  dz2    Ryd( 3d)     0.00004       2.23563
   487    H   11  dz2    Ryd( 4d)     0.00002       4.19954
 
   488    H   12  S      Val( 1S)     0.78094       0.02940
   489    H   12  S      Ryd( 4S)     0.00033       2.05154
   490    H   12  S      Ryd( 2S)     0.00014       0.84422
   491    H   12  S      Ryd( 3S)     0.00002       1.22414
   492    H   12  px     Ryd( 2p)     0.00053       1.01672
   493    H   12  px     Ryd( 4p)     0.00007       4.23197
   494    H   12  px     Ryd( 3p)     0.00008       2.77504
   495    H   12  py     Ryd( 2p)     0.00051       1.08334
   496    H   12  py     Ryd( 4p)     0.00008       4.45537
   497    H   12  py     Ryd( 3p)     0.00006       2.90440
   498    H   12  pz     Ryd( 2p)     0.00017       0.83201
   499    H   12  pz     Ryd( 4p)     0.00008       3.28240
   500    H   12  pz     Ryd( 3p)     0.00002       2.07141
   501    H   12  dxy    Ryd( 3d)     0.00015       2.18397
   502    H   12  dxy    Ryd( 4d)     0.00002       4.31695
   503    H   12  dxz    Ryd( 3d)     0.00001       1.64241
   504    H   12  dxz    Ryd( 4d)     0.00001       3.64158
   505    H   12  dyz    Ryd( 3d)     0.00001       1.68458
   506    H   12  dyz    Ryd( 4d)     0.00000       3.71441
   507    H   12  dx2y2  Ryd( 3d)     0.00002       1.95218
   508    H   12  dx2y2  Ryd( 4d)     0.00002       4.42069
   509    H   12  dz2    Ryd( 3d)     0.00002       1.93009
   510    H   12  dz2    Ryd( 4d)     0.00003       3.75864
 
   511    H   13  S      Val( 1S)     0.78095       0.02547
   512    H   13  S      Ryd( 4S)     0.00032       2.03037
   513    H   13  S      Ryd( 2S)     0.00015       0.85125
   514    H   13  S      Ryd( 3S)     0.00002       1.10308
   515    H   13  px     Ryd( 2p)     0.00085       1.02140
   516    H   13  px     Ryd( 4p)     0.00011       4.72396
   517    H   13  px     Ryd( 3p)     0.00004       3.59138
   518    H   13  py     Ryd( 2p)     0.00035       1.02819
   519    H   13  py     Ryd( 4p)     0.00004       3.82675
   520    H   13  py     Ryd( 3p)     0.00008       2.26339
   521    H   13  pz     Ryd( 2p)     0.00012       0.82474
   522    H   13  pz     Ryd( 4p)     0.00006       3.54666
   523    H   13  pz     Ryd( 3p)     0.00003       1.82210
   524    H   13  dxy    Ryd( 3d)     0.00004       1.91116
   525    H   13  dxy    Ryd( 4d)     0.00002       4.41569
   526    H   13  dxz    Ryd( 3d)     0.00001       1.70798
   527    H   13  dxz    Ryd( 4d)     0.00001       3.94648
   528    H   13  dyz    Ryd( 3d)     0.00002       1.52798
   529    H   13  dyz    Ryd( 4d)     0.00000       3.48108
   530    H   13  dx2y2  Ryd( 3d)     0.00014       2.10504
   531    H   13  dx2y2  Ryd( 4d)     0.00003       4.34639
   532    H   13  dz2    Ryd( 3d)     0.00002       1.87568
   533    H   13  dz2    Ryd( 4d)     0.00002       3.79014
 
   534    H   14  S      Val( 1S)     0.76776       0.02803
   535    H   14  S      Ryd( 4S)     0.00044       2.04459
   536    H   14  S      Ryd( 2S)     0.00011       0.78594
   537    H   14  S      Ryd( 3S)     0.00002       1.41260
   538    H   14  px     Ryd( 2p)     0.00043       0.94959
   539    H   14  px     Ryd( 4p)     0.00007       4.04604
   540    H   14  px     Ryd( 3p)     0.00005       2.98401
   541    H   14  py     Ryd( 2p)     0.00112       1.16681
   542    H   14  py     Ryd( 3p)     0.00017       3.87461
   543    H   14  py     Ryd( 4p)     0.00005       4.46111
   544    H   14  pz     Ryd( 2p)     0.00025       0.74004
   545    H   14  pz     Ryd( 4p)     0.00002       3.74010
   546    H   14  pz     Ryd( 3p)     0.00004       2.00127
   547    H   14  dxy    Ryd( 3d)     0.00007       2.21307
   548    H   14  dxy    Ryd( 4d)     0.00003       4.45687
   549    H   14  dxz    Ryd( 3d)     0.00001       1.62713
   550    H   14  dxz    Ryd( 4d)     0.00001       3.55680
   551    H   14  dyz    Ryd( 3d)     0.00001       1.81505
   552    H   14  dyz    Ryd( 4d)     0.00001       3.87555
   553    H   14  dx2y2  Ryd( 3d)     0.00008       2.11758
   554    H   14  dx2y2  Ryd( 4d)     0.00002       4.40464
   555    H   14  dz2    Ryd( 3d)     0.00003       2.15094
   556    H   14  dz2    Ryd( 4d)     0.00001       4.13034
 
   557    H   15  S      Val( 1S)     0.49154       0.13788
   558    H   15  S      Ryd( 4S)     0.00130       1.84453
   559    H   15  S      Ryd( 3S)     0.00013       1.21048
   560    H   15  S      Ryd( 2S)     0.00009       0.94729
   561    H   15  px     Ryd( 2p)     0.00030       2.47003
   562    H   15  px     Ryd( 4p)     0.00033       3.68929
   563    H   15  px     Ryd( 3p)     0.00002       3.27022
   564    H   15  py     Ryd( 2p)     0.00019       2.20894
   565    H   15  py     Ryd( 4p)     0.00008       3.17583
   566    H   15  py     Ryd( 3p)     0.00002       2.88750
   567    H   15  pz     Ryd( 2p)     0.00046       1.65904
   568    H   15  pz     Ryd( 4p)     0.00005       2.78898
   569    H   15  pz     Ryd( 3p)     0.00001       2.67907
   570    H   15  dxy    Ryd( 3d)     0.00003       1.69976
   571    H   15  dxy    Ryd( 4d)     0.00000       4.59396
   572    H   15  dxz    Ryd( 3d)     0.00009       1.15518
   573    H   15  dxz    Ryd( 4d)     0.00000       4.18747
   574    H   15  dyz    Ryd( 3d)     0.00002       1.17131
   575    H   15  dyz    Ryd( 4d)     0.00000       3.91247
   576    H   15  dx2y2  Ryd( 3d)     0.00011       1.41041
   577    H   15  dx2y2  Ryd( 4d)     0.00002       4.51734
   578    H   15  dz2    Ryd( 3d)     0.00011       1.66704
   579    H   15  dz2    Ryd( 4d)     0.00000       4.13799

 WARNING:  1 low occupancy (<1.9990e) core orbital  found on  C    5
           1 low occupancy (<1.9990e) core orbital  found on  C    6

 WARNING:  Population inversion found on atom  C    1
           Population inversion found on atom  C    2
           Population inversion found on atom  C    3
           Population inversion found on atom  C    4
           Population inversion found on atom  C    5
           Population inversion found on atom  C    6
           Population inversion found on atom  C    7
           Population inversion found on atom  O    8
           Population inversion found on atom  O    9
           Population inversion found on atom Cl   10
           Population inversion found on atom  H   11
           Population inversion found on atom  H   12
           Population inversion found on atom  H   13
           Population inversion found on atom  H   14
           Population inversion found on atom  H   15


 Summary of Natural Population Analysis:                  
                                                          
                                       Natural Population 
                Natural  -----------------------------------------------
    Atom  No    Charge         Core      Valence    Rydberg      Total
 -----------------------------------------------------------------------
      C    1   -0.10833      1.99910     4.08815    0.02108     6.10833
      C    2   -0.21638      1.99911     4.19850    0.01877     6.21638
      C    3   -0.15498      1.99908     4.13712    0.01877     6.15498
      C    4   -0.23840      1.99900     4.21471    0.02468     6.23840
      C    5    0.04082      1.99846     3.92992    0.03081     5.95918
      C    6   -0.25589      1.99871     4.22929    0.02789     6.25589
      C    7    0.78846      1.99911     3.17630    0.03612     5.21154
      O    8   -0.61273      1.99979     6.58288    0.03006     8.61273
      O    9   -0.69362      1.99978     6.67021    0.02363     8.69362
     Cl   10    0.03865      9.99965     6.94571    0.01598    16.96135
      H   11    0.24486      0.00000     0.75242    0.00272     0.75514
      H   12    0.21668      0.00000     0.78094    0.00239     0.78332
      H   13    0.21657      0.00000     0.78095    0.00248     0.78343
      H   14    0.22919      0.00000     0.76776    0.00305     0.77081
      H   15    0.50510      0.00000     0.49154    0.00336     0.49490
 =======================================================================
   * Total *    0.00000     27.99180    51.74640    0.26180    80.00000

                                 Natural Population      
 --------------------------------------------------------
   Core                      27.99180 ( 99.9707% of  28)
   Valence                   51.74640 ( 99.5123% of  52)
   Natural Minimal Basis     79.73820 ( 99.6727% of  80)
   Natural Rydberg Basis      0.26180 (  0.3273% of  80)
 --------------------------------------------------------

    Atom  No          Natural Electron Configuration
 ----------------------------------------------------------------------------
      C    1      [core]2S( 0.94)2p( 3.15)4p( 0.01)
      C    2      [core]2S( 0.95)2p( 3.25)5p( 0.01)
      C    3      [core]2S( 0.95)2p( 3.19)4p( 0.01)
      C    4      [core]2S( 0.95)2p( 3.27)3p( 0.01)
      C    5      [core]2S( 0.91)2p( 3.02)4p( 0.01)4f( 0.01)
      C    6      [core]2S( 0.89)2p( 3.34)4p( 0.01)4f( 0.01)
      C    7      [core]2S( 0.78)2p( 2.40)4p( 0.01)4d( 0.01)
      O    8      [core]2S( 1.71)2p( 4.88)3d( 0.02)
      O    9      [core]2S( 1.68)2p( 4.99)3d( 0.02)
     Cl   10      [core]3S( 1.83)3p( 5.12)4d( 0.01)
      H   11            1S( 0.75)
      H   12            1S( 0.78)
      H   13            1S( 0.78)
      H   14            1S( 0.77)
      H   15            1S( 0.49)


 NATURAL BOND ORBITAL ANALYSIS:

                       Occupancies       Lewis Structure    Low   High
           Occ.    -------------------  -----------------   occ   occ
  Cycle   Thresh.   Lewis   Non-Lewis     CR  BD  3C  LP    (L)   (NL)   Dev
 =============================================================================
   1(1)    1.90    75.95735   4.04265     14  17   0   9     8      6    0.47
   2(2)    1.90    75.95735   4.04265     14  17   0   9     8      6    0.47
   3(1)    1.80    76.31840   3.68160     14  16   0  10     3      4    0.47
   4(2)    1.80    76.31840   3.68160     14  16   0  10     3      4    0.47
   5(1)    1.70    76.31840   3.68160     14  16   0  10     3      4    0.47
   6(2)    1.70    76.31840   3.68160     14  16   0  10     3      4    0.47
   7(1)    1.60    78.11708   1.88292     14  19   0   7     0      4    0.47
   8(2)    1.60    78.16933   1.83067     14  19   0   7     0      4    0.41
   9(3)    1.60    78.11708   1.88292     14  19   0   7     0      4    0.47
  10(4)    1.60    78.16933   1.83067     14  19   0   7     0      4    0.41
  11(1)    1.50    77.68240   2.31760     14  18   0   8     0      5    0.72
  12(2)    1.50    77.68240   2.31760     14  18   0   8     0      5    0.72
  13(1)    1.60    78.16933   1.83067     14  19   0   7     0      4    0.41
 -----------------------------------------------------------------------------

 Structure accepted: RESONANCE keyword permits strongly delocalized structure

 WARNING:  1 low occupancy (<1.9990e) core orbital  found on  C    5
           1 low occupancy (<1.9990e) core orbital  found on  C    6

 --------------------------------------------------------
   Core                     27.99183 ( 99.971% of  28)
   Valence Lewis            50.17749 ( 96.495% of  52)
  ==================       ============================
   Total Lewis              78.16933 ( 97.712% of  80)
  -----------------------------------------------------
   Valence non-Lewis         1.68444 (  2.106% of  80)
   Rydberg non-Lewis         0.14623 (  0.183% of  80)
  ==================       ============================
   Total non-Lewis           1.83067 (  2.288% of  80)
 --------------------------------------------------------


       (Occupancy)   Bond orbital/ Coefficients/ Hybrids
 ---------------------------------------------------------------------------------
     1. (1.97799) BD ( 1) C   1 - C   2  
                ( 50.04%)   0.7074* C   1 s( 36.76%)p 1.71( 63.03%)d 0.00(  0.15%)
                                                  f 0.00(  0.06%)
                                            0.0000  0.6061 -0.0176 -0.0001 -0.0017
                                            0.7803 -0.0226 -0.0039  0.0030  0.1423
                                            0.0263 -0.0028  0.0009  0.0000  0.0000
                                            0.0000  0.0000  0.0212 -0.0009  0.0032
                                            0.0000  0.0000  0.0000  0.0000  0.0000
                                            0.0000  0.0222  0.0024 -0.0052 -0.0220
                                           -0.0014 -0.0013  0.0000  0.0000 -0.0132
                                           -0.0112 -0.0041 -0.0014  0.0000  0.0000
                                            0.0000  0.0000  0.0067  0.0088  0.0107
                                            0.0023
                ( 49.96%)   0.7068* C   2 s( 36.57%)p 1.73( 63.24%)d 0.00(  0.16%)
                                                  f 0.00(  0.03%)
                                            0.0000  0.6046 -0.0109  0.0013  0.0001
                                           -0.7746  0.0117 -0.0032  0.0020 -0.1764
                                            0.0345 -0.0020 -0.0009  0.0000  0.0000
                                            0.0000  0.0000  0.0078 -0.0045 -0.0026
                                            0.0000  0.0000  0.0000  0.0000  0.0000
                                            0.0000  0.0308  0.0077 -0.0006 -0.0220
[...]
 ! D26   D(1,6,7,9)           -179.9996         -DE/DX =    0.0                 !
 ! D27   D(5,6,7,8)           -179.9992         -DE/DX =    0.0                 !
 ! D28   D(5,6,7,9)              0.0004         -DE/DX =    0.0                 !
 ! D29   D(6,7,9,15)           180.0001         -DE/DX =    0.0                 !
 ! D30   D(8,7,9,15)            -0.0003         -DE/DX =    0.0                 !
 --------------------------------------------------------------------------------
 GradGradGradGradGradGradGradGradGradGradGradGradGradGradGradGradGradGrad


 ----------------------------------------------------------------------

 Electric dipole moment (input orientation):
 (Debye = 10**-18 statcoulomb cm , SI units = C m)
                  (au)            (Debye)         (10**-30 SI)
   Tot        0.694275D+00      0.176467D+01      0.588631D+01
   x          0.318278D-01      0.808982D-01      0.269847D+00
   y         -0.693545D+00     -0.176282D+01     -0.588012D+01
   z         -0.131622D-03     -0.334550D-03     -0.111594D-02

 Dipole polarizability, Alpha (input orientation).
 (esu units = cm**3 , SI units = C**2 m**2 J**-1)
 Alpha(0;0):
               (au)            (10**-24 esu)      (10**-40 SI)
   iso        0.102053D+03      0.151227D+02      0.168263D+02
   aniso      0.644970D+02      0.955747D+01      0.106341D+02
   xx         0.121423D+03      0.179930D+02      0.200199D+02
   yx         0.487003D+01      0.721664D+00      0.802959D+00
   yy         0.125255D+03      0.185609D+02      0.206517D+02
   zx         0.516519D-01      0.765403D-02      0.851625D-02
   zy         0.182646D-01      0.270653D-02      0.301142D-02
   zz         0.594821D+02      0.881433D+01      0.980727D+01

 ----------------------------------------------------------------------

 Dipole orientation:
     6         -2.82180758         -0.13146170          0.48305618
     6         -3.03864254         -0.14156396          3.08198473
     6         -0.86881274         -0.04017310          4.55142970
     6          1.47985279          0.06954546          3.41084105
     6          1.69340813          0.07949409          0.79283091
     6         -0.47251908         -0.02171533         -0.71841074
     6         -0.60349733         -0.02786381         -3.54283481
     8         -2.56748100         -0.11960679         -4.68305432
     8          1.62301327          0.07613105         -4.73463596
    17          4.74832247          0.22221110         -0.38012552
     1         -4.47652877         -0.20878137         -0.71043109
     1         -4.88204062         -0.22767763          3.95572881
     1         -0.99556843         -0.04607243          6.59106515
     1          3.18381216          0.14916870          4.53170634
     1          1.25101819          0.05873795         -6.52394371

 Electric dipole moment (dipole orientation):
 (Debye = 10**-18 statcoulomb cm , SI units = C m)
                  (au)            (Debye)         (10**-30 SI)
   Tot        0.694275D+00      0.176467D+01      0.588631D+01
   x          0.000000D+00      0.000000D+00      0.000000D+00
   y          0.000000D+00      0.000000D+00      0.000000D+00
   z          0.694275D+00      0.176467D+01      0.588631D+01

 Dipole polarizability, Alpha (dipole orientation).
 (esu units = cm**3 , SI units = C**2 m**2 J**-1)
 Alpha(0;0):
               (au)            (10**-24 esu)      (10**-40 SI)
   iso        0.102053D+03      0.151227D+02      0.168263D+02
   aniso      0.644970D+02      0.955747D+01      0.106341D+02
   xx         0.121741D+03      0.180402D+02      0.200724D+02
   yx         0.290864D+01      0.431015D+00      0.479569D+00
   yy         0.596179D+02      0.883446D+01      0.982966D+01
   zx        -0.501962D+01     -0.743831D+00     -0.827624D+00
   zy        -0.233856D+00     -0.346538D-01     -0.385576D-01
   zz         0.124801D+03      0.184936D+02      0.205769D+02

 ----------------------------------------------------------------------
 Unable to Open any file for archive entry.
 1\1\GINC-AE38\Freq\RM062X\Aug-CC-pVTZ\C7H5Cl1O2\DHUANG\02-Apr-2025\0\\
 #N Geom=AllCheck Guess=TCheck SCRF=Check GenChk RM062X/Aug-CC-pVTZ Fre
 q\\o-Cl\\0,1\C,-1.4815653361,-0.3238823685,-0.0010870914\C,-1.53326522
 56,-1.7029961179,-0.0014278457\C,-0.3493492251,-2.4270798128,-0.000616
 2572\C,0.8658881894,-1.7671022277,0.0005209688\C,0.915389599,-0.377981
 1986,0.0008619835\C,-0.2674751385,0.3682918682,0.0000558258\C,-0.40530
 74203,1.8581604102,0.0002663928\O,-1.4723027161,2.4132077835,-0.000471
 8164\O,0.7440431572,2.5422433793,0.0013464614\Cl,2.5035868154,0.316258
 3233,0.0023130974\H,-2.3861926154,0.2668340399,-0.0016979512\H,-2.4875
 899352,-2.2096434008,-0.0023176378\H,-0.3669475392,-3.5083519476,-0.00
 08643926\H,1.7948105054,-2.3182333643,0.00116235\H,0.503776885,3.47907
 46336,0.0013559128\\Version=ES64L-G16RevC.01\State=1-A\HF=-880.4200455
 \RMSD=1.581e-09\RMSF=8.915e-05\ZeroPoint=0.1068624\Thermal=0.1142321\E
 Tot=-880.3058134\HTot=-880.3048692\GTot=-880.3458616\Dipole=0.0318278,
 -0.6935451,-0.0001316\DipoleDeriv=-0.0399625,0.1061215,0.0000517,-0.08
 99007,0.0894061,-0.0000379,0.0000087,0.000122,-0.0751066,-0.0377565,0.
 0902255,0.0000965,0.2096086,-0.1431748,0.0001688,0.0001221,0.0000712,-
 0.1319841,0.1862314,0.0418414,0.0002349,-0.025409,0.1202075,0.0000245,
 0.0002205,0.0000797,-0.0897475,-0.1943527,-0.1872261,-0.0001143,-0.304
 8995,-0.2506605,-0.0002814,-0.0001396,-0.0001852,-0.1042684,0.9523459,
 0.1873616,0.0008241,0.5356288,0.3479175,0.0005147,0.0008999,0.0002318,
 -0.0047096,-0.2352955,-0.0213394,-0.0001788,0.0133523,-0.5906145,-0.00
 01127,-0.0001721,-0.0001406,-0.0215721,1.643195,0.0215326,0.0010611,-0
 .1057478,2.0296524,0.0002806,0.001035,0.0003858,0.3343258,-1.0420162,0
 .3152264,-0.0004748,0.4200181,-1.0692871,0.0001884,-0.0004498,0.000102
 1,-0.3701391,-0.8843923,-0.4265121,-0.0005362,-0.4502825,-0.9274222,-0
 .0004915,-0.0005443,-0.0004741,-0.3338302,-0.6843555,-0.2254726,-0.000
 5701,-0.2574592,-0.107993,-0.0002242,-0.0005776,-0.0001982,-0.0474576,
 0.0377872,0.0141217,-0.0000672,0.0157413,0.1112154,0.0000105,-0.000066
 3,0.0000093,0.123464,-0.0225386,-0.0550213,-0.0001416,-0.0449795,0.034
 9331,-0.0000587,-0.0001394,-0.0000668,0.1360455,0.0653414,-0.0033828,-
 0.0000515,-0.0100271,-0.0551016,-0.0000477,-0.0000529,-0.0000421,0.127
 3699,0.0073629,0.0362744,-0.0000928,0.0228199,0.0566984,0.0000027,-0.0
 00096,0.0000136,0.1303361,0.2484061,0.1062491,-0.000041,0.0715363,0.35
 42233,0.0000637,-0.0000483,0.0000914,0.327274\Polar=121.4227194,4.8700
 286,125.2549359,0.0516519,0.0182646,59.4820546\Quadrupole=-3.0446149,6
 .1978528,-3.1532379,4.3923173,0.0010856,0.0055728\PG=C01 [X(C7H5Cl1O2)
 ]\NImag=1\\0.70289982,-0.04319990,0.73654200,0.00044741,0.00009312,0.1
 4412762,-0.13433447,-0.04899206,-0.00006860,0.74250552,0.02901711,-0.3
 5873391,-0.00004022,0.03824341,0.70370688,-0.00005175,-0.00010398,-0.0
 6339295,0.00050604,0.00015458,0.13378945,0.04468883,0.08808718,0.00005
 168,-0.28640559,0.05359088,-0.00017186,0.68098860,0.03037110,-0.031003
 57,0.00001707,0.13137851,-0.18990903,0.00007981,0.00287555,0.75671670,
 0.00003920,0.00006431,0.00479683,-0.00015505,0.00001618,-0.06208581,0.
 00044325,0.00013578,0.13996882,-0.02230212,-0.03320862,-0.00002352,-0.
 06028426,0.03120433,-0.00004689,-0.30383136,-0.13191656,-0.00022744,0.
 75761108,-0.03605712,-0.06136312,-0.00004225,-0.02514395,0.07703494,-0
 .00000507,-0.05032239,-0.18336514,-0.00006769,-0.02823962,0.68056348,-
 0.00002411,-0.00003992,-0.00235909,-0.00005909,0.00004102,0.00530879,-
 0.00020984,-0.00013447,-0.06079171,0.00050640,0.00009563,0.13152326,-0
 .06076283,-0.02796554,-0.00005931,-0.01545408,0.03441492,-0.00000233,0
 .03317505,-0.02891806,0.00001811,-0.11185165,-0.03126028,-0.00004474,0
 .54760870,0.03677893,0.07680859,0.00004579,0.03636684,-0.06943985,0.00
 001548,-0.09840897,-0.02244888,-0.00008611,0.04722178,-0.32006627,-0.0
 0001643,-0.04461113,0.60565129,-0.00004532,-0.00000717,0.00435380,-0.0
 0000190,0.00001387,-0.00351181,0.00000304,-0.00002926,0.00340771,-0.00
 002772,-0.00008061,-0.06546433,0.00033059,0.00006599,0.13188228,-0.270
 00924,-0.04135293,-0.00017699,0.03351949,-0.08299789,0.00000526,-0.076
 06035,0.00237381,-0.00005927,0.03871748,0.07837836,0.00004302,-0.24295
 155,0.05711577,-0.00013535,0.67970524,-0.11323017,-0.16429722,-0.00011
 429,-0.02561776,-0.02586219,-0.00002765,0.00053079,-0.00148208,0.00000
 076,0.02217119,-0.02709169,0.00001077,0.11559516,-0.18079970,0.0000690
 8,-0.01622915,0.63665953,-0.00019256,-0.00005552,-0.06453550,0.0000175
 9,-0.00007457,0.00519513,-0.00005961,0.00000227,-0.00299046,0.00003077
 ,0.00005671,0.00691442,-0.00012260,0.00002126,-0.06250686,0.00043486,0
 .00009374,0.14327388,0.01311221,-0.02521634,0.00000285,-0.00642437,-0.
 00644000,-0.00001304,-0.00425676,0.00092573,-0.00000230,-0.00493267,0.
 00393269,-0.00000940,0.00970088,0.02855303,0.00001564,-0.09635197,-0.0
 0309116,-0.00001242,0.92104192,-0.01960097,-0.03214856,-0.00002360,-0.
 00383923,0.00581916,-0.00000360,0.00127054,0.00160364,0.00000166,0.001
 30590,0.00328789,0.00000013,0.02543868,-0.00694910,0.00001965,0.004011
 69,-0.18868087,-0.00001969,-0.14908789,0.70677873,0.00000395,-0.000028
 34,0.00296850,-0.00001246,-0.00000566,0.00783164,-0.00000220,0.0000013
 4,-0.00120884,-0.00001000,0.00000228,0.00760952,0.00001501,0.00002225,
 -0.00187150,-0.00001092,-0.00002564,-0.08213534,0.00053601,-0.00001288
 ,0.21664844,-0.00852390,-0.00727262,-0.00000911,0.00167094,0.00199668,
 0.00000245,0.00039086,-0.00047477,0.00000008,0.00042926,0.00099688,0.0
 0000195,0.00392953,-0.00074254,0.00000055,-0.01278649,0.03202986,-0.00
 001999,-0.59667526,0.26575983,-0.00035716,0.72705273,0.00354428,-0.003
 45093,0.00000194,0.00168022,0.00042287,0.00000166,0.00134334,-0.000976
 56,0.00000085,0.00159471,-0.00274696,0.00000111,-0.01131483,-0.0059935
 1,-0.00001125,0.04734297,-0.03478637,0.00002612,0.26013680,-0.26084226
 ,0.00017037,-0.29847152,0.27034394,-0.00000667,-0.00000678,0.00066307,
 0.00000240,0.00000188,-0.00081672,0.00000046,-0.00000063,0.00017328,0.
 00000214,0.00000058,-0.00172016,-0.00000183,-0.00000263,0.00308208,-0.
 00001667,0.00001385,0.02067749,-0.00035831,0.00017484,-0.08141145,0.00
 049359,-0.00018883,0.03394456,0.00134921,0.00151274,0.00000050,0.00182
 821,-0.00091839,0.00000154,-0.00053523,-0.00038684,-0.00000058,0.00104
 115,0.00002537,0.00000122,-0.00798294,-0.00293730,-0.00000696,0.001666
 52,-0.01041914,-0.00000945,-0.24177472,-0.06541606,-0.00015628,-0.1174
 5778,-0.01696561,-0.00012427,0.44031371,0.00532375,-0.00585076,0.00000
 285,-0.00129895,-0.00180846,-0.00000141,-0.00087054,-0.00014902,-0.000
 00076,0.00077100,0.00007883,0.00000074,-0.00616672,-0.00004675,-0.0000
 0499,-0.03732284,-0.02736626,-0.00003851,-0.09983538,-0.18612811,-0.00
 010691,-0.00480925,0.03807073,-0.00000250,-0.01209968,0.65715863,0.000
 00132,-0.00000027,0.00113968,0.00000146,-0.00000109,-0.00030196,-0.000
 00070,-0.00000036,0.00007735,0.00000141,0.00000015,-0.00046291,-0.0000
 0767,-0.00000238,-0.00023064,-0.00001525,-0.00001664,0.01052310,-0.000
 16384,-0.00007903,-0.06630609,-0.00012150,-0.00001234,0.03174957,0.000
 32165,0.00012453,0.03945763,-0.00210407,0.00487345,-0.00000456,-0.0031
 0564,0.00064374,-0.00000171,0.00609594,-0.00118570,0.00000044,-0.02458
 678,-0.01765334,-0.00002964,-0.15205865,-0.05061504,-0.00011463,-0.031
 70287,-0.01476393,-0.00003186,-0.00285231,-0.00982114,-0.00000220,-0.0
 0005413,0.00265701,0.00000030,-0.00045778,0.01052929,0.00000075,0.2126
 8627,0.00021883,-0.00342762,-0.00000159,-0.00261503,0.00231450,-0.0000
 0145,0.00573025,-0.00364318,0.00000277,-0.04188558,-0.02079365,-0.0000
 4030,-0.04943888,-0.06239174,-0.00004851,0.00469524,0.00964191,0.00000
 522,-0.00172763,-0.00410106,-0.00000169,0.00090160,0.00132198,0.000000
 95,0.00938127,-0.00920613,0.00000542,0.07607775,0.09038288,-0.00000558
 ,0.00000221,0.00476213,-0.00000242,0.00000122,-0.00084628,0.00000196,-
 0.00000289,0.00524215,-0.00003488,-0.00002047,0.00693322,-0.00011440,-
 0.00004945,-0.02541194,-0.00002761,-0.00001073,0.00328870,-0.00000048,
 -0.00000833,-0.00273547,-0.00000007,0.00000239,0.00027990,0.00000052,0
 .00000638,0.00137764,0.00018197,0.00007956,0.01055253,-0.26358454,0.13
 015636,-0.00015227,0.00713756,-0.00332233,0.00000027,0.00123178,-0.001
 24429,-0.00000515,0.00019915,-0.00068641,0.00000064,-0.00236475,-0.003
 25256,-0.00000722,-0.02003279,0.01465502,-0.00001755,-0.00374556,0.002
 11445,0.00000077,0.00285285,0.00139295,0.00000287,0.00104516,0.0001820
 2,0.00000080,-0.00120909,0.00033751,-0.00000114,0.27775716,0.13321244,
 -0.14141519,0.00008747,0.02549814,-0.00996367,0.00001739,-0.00066830,-
 0.00541178,-0.00000328,-0.00119586,-0.00091696,-0.00000101,-0.00219236
 ,-0.00079478,-0.00000318,-0.01214621,0.01194931,-0.00000850,-0.0032403
 7,0.00023943,-0.00000169,-0.00003142,-0.00451017,-0.00000095,0.0018025
 9,0.00069936,0.00000158,-0.00152947,0.00008933,-0.00000129,-0.14032762
 ,0.14951053,-0.00015155,0.00008493,-0.04266880,0.00000650,-0.00000616,
 0.00592689,-0.00000504,-0.00000374,0.00720770,0.00000054,-0.00000058,-
 0.00077195,-0.00000699,-0.00000406,0.00560538,-0.00002339,0.00001346,0
 .00532713,-0.00000041,0.00000265,-0.00408901,0.00000256,0.00000019,-0.
 00029880,0.00000118,0.00000029,0.00010538,-0.00000154,0.00000024,0.000
 27144,0.00017331,-0.00008840,0.02837014,0.00350373,0.00159730,0.000000
 05,-0.28357157,-0.11878787,-0.00022547,-0.01774768,-0.01463829,-0.0000
 2075,-0.00287515,0.00388743,-0.00000701,0.00007374,0.00104842,0.000000
 46,0.00184084,0.00042768,-0.00000421,0.00005041,0.00034759,-0.00000012
 ,0.00005013,-0.00017189,-0.00000004,-0.00001002,-0.00006442,0.00000010
 ,0.00006144,-0.00013383,0.00000073,0.00055484,-0.00032408,0.00000387,0
 .29796830,-0.02909248,-0.01005762,-0.00002680,-0.11850896,-0.12224307,
 -0.00011485,0.01603691,0.01223618,0.00001495,0.00343600,-0.00095898,0.
 00000115,0.00109322,-0.00130168,0.00000066,0.00078661,-0.00521978,-0.0
 0000203,-0.00172318,0.00062910,-0.00000133,0.00039377,-0.00024642,0.00
 000025,-0.00004403,-0.00083823,-0.00000019,-0.00004533,0.00019652,0.00
 000019,0.00040297,0.00111631,0.00000149,0.12732183,0.12561487,-0.00000
 658,-0.00000170,0.00385952,-0.00022540,-0.00011508,-0.03921881,-0.0000
 1412,-0.00001013,0.00375744,-0.00000710,0.00000152,0.00671976,0.000000
 47,0.00000062,-0.00020984,-0.00000415,-0.00000232,0.00711036,-0.000000
 57,0.00000036,0.00029089,0.00000008,-0.00000021,0.00005403,0.00000010,
 -0.00000020,-0.00014772,0.00000075,0.00000012,-0.00086119,0.00000402,0
 .00000090,-0.00426022,0.00024946,0.00012553,0.02653613,-0.00449783,0.0
 0322836,-0.00000857,0.00641029,0.02713399,0.00000674,-0.06037450,-0.00
 440037,-0.00001629,0.00380540,-0.02859887,-0.00000719,-0.00339354,-0.0
 0243578,-0.00000949,-0.00158440,-0.00011723,-0.00000095,-0.00034501,0.
 00004959,0.00000070,0.00032283,0.00010058,0.00000012,0.00016577,0.0001
 1081,0.00000016,-0.00080790,-0.00116997,-0.00000072,0.00026517,0.00120
 122,0.00000085,0.00091396,-0.00073243,0.00000350,0.05822356,0.00335877
 ,0.00005415,0.00000128,-0.00321016,-0.01077696,-0.00000611,-0.00472811
 ,-0.34457754,-0.00006936,0.00218806,-0.01043334,-0.00000155,-0.0020247
 8,0.00088494,-0.00000310,0.00000969,0.00085613,0.00000029,0.00009857,-
 0.00013060,0.00000031,-0.00009423,-0.00011594,-0.00000015,-0.00003538,
 -0.00005257,-0.00000004,-0.00037042,-0.00053188,-0.00000037,-0.0003061
 1,-0.00049890,-0.00000026,0.00021372,0.00067323,0.00000109,0.00506636,
 0.36392948,-0.00000854,0.00000117,0.00683937,0.00000018,0.00001871,0.0
 0533992,-0.00001636,-0.00006908,-0.04161902,-0.00000054,-0.00002675,0.
 00503238,-0.00000940,-0.00000343,0.00755513,-0.00000093,0.00000019,-0.
 00045647,0.00000071,0.00000027,-0.00118021,0.00000008,0.00000001,0.000
 20147,0.00000013,0.00000008,0.00000206,-0.00000055,-0.00000102,-0.0002
 3203,0.00000053,0.00000098,-0.00046292,0.00000370,0.00000031,-0.003557
 04,0.00002694,0.00007707,0.02662455,0.00014284,-0.00105433,0.00000068,
 -0.00304576,-0.00362224,-0.00000917,-0.01724782,0.01516703,-0.00001412
 ,-0.27117038,0.13060202,-0.00016248,0.00239812,-0.00371799,-0.00000183
 ,0.00129142,-0.00047523,-0.00000350,0.00010734,-0.00041197,-0.00000058
 ,0.00006599,-0.00001398,0.00000035,0.00012338,0.00004185,0.00000010,0.
 00117884,-0.00185238,0.00000301,-0.00000861,0.00008252,0.00000043,-0.0
 0082348,0.00078010,-0.00000048,0.00089818,-0.00017217,0.00000407,0.286
 08686,-0.00105108,-0.00087154,-0.00000084,-0.00335584,-0.00075955,-0.0
 0000446,-0.01453479,0.01227521,-0.00001011,0.12648771,-0.13329640,0.00
 008300,0.02718133,-0.01336609,0.00001857,-0.00132318,-0.00548590,-0.00
 000344,0.00137849,0.00097102,0.00000119,0.00032320,-0.00089775,0.00000
 014,-0.00033920,-0.00025407,-0.00000034,0.00073390,0.00041624,0.000001
 34,0.00008054,0.00001995,0.00000018,-0.00075930,0.00045540,-0.00000052
 ,0.00056786,0.00070559,0.00000151,-0.13537734,0.14005938,0.00000068,-0
 .00000085,-0.00096071,-0.00000911,-0.00000468,0.00720106,-0.00002053,0
 .00001421,0.00401081,-0.00016339,0.00008636,-0.03822649,0.00000485,-0.
 00000671,0.00364852,-0.00000368,-0.00000275,0.00544400,-0.00000019,-0.
 00000028,0.00070898,0.00000043,-0.00000012,-0.00037248,0.00000002,-0.0
 0000002,0.00001169,0.00000357,-0.00000078,-0.00298640,0.00000042,0.000
 00018,-0.00050752,-0.00000082,0.00000074,-0.00002396,0.00000423,0.0000
 0090,-0.00412400,0.00018354,-0.00008621,0.02615301,0.00042237,-0.00119
 306,-0.00000024,-0.00044628,-0.00015636,-0.00000006,-0.00011177,0.0000
 7314,-0.00000012,0.00003087,0.00013921,0.00000025,-0.00006603,-0.00036
 347,0.00000013,-0.00526135,-0.00146593,-0.00000852,0.01334588,-0.05212
 102,-0.00000451,-0.00126755,0.00714496,0.00000555,-0.07931464,0.145509
 05,-0.00001877,-0.00108326,0.00148085,-0.00000087,-0.00009833,-0.00014
 123,-0.00000031,0.00001050,-0.00010498,0.00000003,-0.00000197,0.000006
 19,-0.00000003,0.00000308,-0.00001230,-0.00000002,0.07383848,0.0004065
 0,-0.00078469,0.00000008,-0.00058519,0.00019834,-0.00000034,0.00006766
 ,0.00013506,0.00000007,0.00006556,0.00006737,0.00000012,0.00016927,0.0
 0025353,0.00000026,-0.00334195,0.00196518,-0.00000336,-0.00466337,-0.0
 4034840,-0.00001360,0.00949453,0.00440735,0.00000997,0.09683966,-0.464
 30719,-0.00001902,0.00046922,-0.00026810,0.00000025,-0.00018251,-0.000
 11275,-0.00000023,0.00003569,-0.00005583,0.00000003,-0.00000415,0.0000
 1420,0.,0.00002412,0.00002851,0.00000002,-0.09879504,0.49880741,0.0000
 0010,-0.00000122,0.00040652,-0.00000014,0.,-0.00041854,-0.00000012,0.0
 0000008,0.00005374,0.00000024,0.00000018,-0.00024471,0.00000025,-0.000
 00018,-0.00032798,-0.00000893,-0.00000181,0.00487042,0.00000577,-0.000
 05213,0.00487996,0.00000607,0.00000810,-0.00620583,-0.00002931,0.00002
 043,-0.01699478,-0.00000110,0.00000108,0.00036564,-0.00000032,-0.00000
 019,0.00024516,0.00000006,-0.00000009,-0.00004934,-0.00000003,0.,0.000
 03680,-0.00000001,0.,0.00002347,0.00002749,0.00002576,0.01335946\\-0.0
 0000522,-0.00014246,-0.00000011,0.00017101,-0.00009029,0.00000013,-0.0
 0022455,0.00009703,-0.00000018,-0.00001618,0.00017870,0.,0.00019694,-0
 .00026079,0.00000013,-0.00005234,0.00011169,0.00000030,-0.00017907,0.0
 0011606,-0.00000127,0.00013849,-0.00000273,0.00000057,-0.00004163,0.00
 004448,0.00000038,-0.00006076,0.00000479,-0.00000004,-0.00001183,0.000
 05665,0.00000005,-0.00003335,-0.00001549,-0.00000001,0.00001748,-0.000
 04727,0.00000002,0.00004423,-0.00002314,0.00000004,0.00005677,-0.00002
 723,0.\\\@
 The archive entry for this job was punched.


 SOME THINGS ARE EASY, THEY ARE ONLY HARD TO DO.
            -- A. EINSTEIN TO J. O. HIRSCHFELDER
 THE ONLY TROUBLE WITH A SURE THING IS THE UNCERTAINTY.
     -- FROM A TEABAG (BELONGING TO W.H.?)
 Job cpu time:       0 days 12 hours 21 minutes  7.3 seconds.
 Elapsed time:       0 days  0 hours 37 minutes  3.7 seconds.
 File lengths (MBytes):  RWF=    390 Int=      0 D2E=      0 Chk=     31 Scr=      1
 Normal termination of Gaussian 16 at Wed Apr  2 13:03:07 2025.
