 Entering Gaussian System, Link 0=g16
 Initial command:
 /usr/local/gaussian16c01/g16/l1.exe "/scr/dhuang/Gau-180889.inp" -scrdir="/scr/dhuang/"
 Entering Link 1 = /usr/local/gaussian16c01/g16/l1.exe PID=    180891.
  
 Copyright (c) 1988-2019, Gaussian, Inc.  All Rights Reserved.
  
 This is part of the Gaussian(R) 16 program.  It is based on
 the Gaussian(R) 09 system (copyright 2009, Gaussian, Inc.),
 the Gaussian(R) 03 system (copyright 2003, Gaussian, Inc.),
 the Gaussian(R) 98 system (copyright 1998, Gaussian, Inc.),
 the Gaussian(R) 94 system (copyright 1995, Gaussian, Inc.),
 the Gaussian 92(TM) system (copyright 1992, Gaussian, Inc.),
 the Gaussian 90(TM) system (copyright 1990, Gaussian, Inc.),
 the Gaussian 88(TM) system (copyright 1988, Gaussian, Inc.),
 the Gaussian 86(TM) system (copyright 1986, Carnegie Mellon
 University), and the Gaussian 82(TM) system (copyright 1983,
 Carnegie Mellon University). Gaussian is a federally registered
 trademark of Gaussian, Inc.
  
 This software contains proprietary and confidential information,
 including trade secrets, belonging to Gaussian, Inc.
  
 This software is provided under written license and may be
 used, copied, transmitted, or stored only in accord with that
 written license.
  
 The following legend is applicable only to US Government
 contracts under FAR:
  
                    RESTRICTED RIGHTS LEGEND
  
 Use, reproduction and disclosure by the US Government is
 subject to restrictions as set forth in subparagraphs (a)
 and (c) of the Commercial Computer Software - Restricted
 Rights clause in FAR 52.227-19.
  
 Gaussian, Inc.
 340 Quinnipiac St., Bldg. 40, Wallingford CT 06492
  
  
 ---------------------------------------------------------------
 Warning -- This program may not be used in any manner that
 competes with the business of Gaussian, Inc. or will provide
 assistance to any competitor of Gaussian, Inc.  The licensee
 of this program is prohibited from giving any competitor of
 Gaussian, Inc. access to this program.  By using this program,
 the user acknowledges that Gaussian, Inc. is engaged in the
 business of creating and licensing software in the field of
 computational chemistry and represents and warrants to the
 licensee that it is not a competitor of Gaussian, Inc. and that
 it will not use this program in any manner prohibited above.
 ---------------------------------------------------------------
  

 Cite this work as:
 Gaussian 16, Revision C.01,
 M. J. Frisch, G. W. Trucks, H. B. Schlegel, G. E. Scuseria, 
 M. A. Robb, J. R. Cheeseman, G. Scalmani, V. Barone, 
 G. A. Petersson, H. Nakatsuji, X. Li, M. Caricato, A. V. Marenich, 
 J. Bloino, B. G. Janesko, R. Gomperts, B. Mennucci, H. P. Hratchian, 
 J. V. Ortiz, A. F. Izmaylov, J. L. Sonnenberg, D. Williams-Young, 
 F. Ding, F. Lipparini, F. Egidi, J. Goings, B. Peng, A. Petrone, 
 T. Henderson, D. Ranasinghe, V. G. Zakrzewski, J. Gao, N. Rega, 
 G. Zheng, W. Liang, M. Hada, M. Ehara, K. Toyota, R. Fukuda, 
 J. Hasegawa, M. Ishida, T. Nakajima, Y. Honda, O. Kitao, H. Nakai, 
 T. Vreven, K. Throssell, J. A. Montgomery, Jr., J. E. Peralta, 
 F. Ogliaro, M. J. Bearpark, J. J. Heyd, E. N. Brothers, K. N. Kudin, 
 V. N. Staroverov, T. A. Keith, R. Kobayashi, J. Normand, 
 K. Raghavachari, A. P. Rendell, J. C. Burant, S. S. Iyengar, 
 J. Tomasi, M. Cossi, J. M. Millam, M. Klene, C. Adamo, R. Cammi, 
 J. W. Ochterski, R. L. Martin, K. Morokuma, O. Farkas, 
 J. B. Foresman, and D. J. Fox, Gaussian, Inc., Wallingford CT, 2019.
 
 ******************************************
 Gaussian 16:  ES64L-G16RevC.01  3-Jul-2019
                 2-Apr-2025 
 ******************************************
 %nprocshared=20
 Will use up to   20 processors via shared memory.
 %mem=10000MW
 %chk=o-F.chk
 ------------------------------------
 # opt freq m062x/aug-cc-pvtz pop=nbo
 ------------------------------------
 1/18=20,19=15,26=3,38=1/1,3;
 2/9=110,12=2,17=6,18=5,40=1/2;
 3/5=16,6=1,7=10,11=2,25=1,30=1,71=1,74=-55/1,2,3;
 4//1;
 5/5=2,38=5/2;
 6/7=2,8=2,9=2,10=2,28=1,40=1/1,7;
 7//1,2,3,16;
 1/18=20,19=15,26=3/3(2);
 2/9=110/2;
 99//99;
 2/9=110/2;
 3/5=16,6=1,7=10,11=2,25=1,30=1,71=1,74=-55/1,2,3;
 4/5=5,16=3,69=1/1;
 5/5=2,38=5/2;
 7//1,2,3,16;
 1/18=20,19=15,26=3/3(-5);
 2/9=110/2;
 6/7=2,8=2,9=2,10=2,19=2,28=1,40=1/1,7;
 99/9=1/99;
 ---
 o-F
 ---
 Symbolic Z-matrix:
 Charge =  0 Multiplicity = 1
 C                    -1.2536   -0.3156   -0.0009 
 C                    -1.2597   -1.6579   -0.0012 
 C                    -0.103    -2.3344   -0.0004 
 C                     1.0526   -1.6556    0.0007 
 C                     1.0614   -0.3123    0.001 
 C                    -0.0979    0.3797    0.0002 
 C                    -0.1102    1.7476    0.0005 
 O                    -1.1389    2.3916   -0.0002 
 O                     1.016     2.503     0.0017 
 F                     2.2374    0.2953    0.0021 
 H                    -2.2374    0.1827   -0.0015 
 H                    -2.2158   -2.2084   -0.0021 
 H                    -0.1023   -3.4371   -0.0007 
 H                     2.0064   -2.2096    0.0013 
 H                     0.7517    3.4371    0.0016 
 

 GradGradGradGradGradGradGradGradGradGradGradGradGradGradGradGradGradGrad
 Berny optimization.
 Initialization pass.
                           ----------------------------
                           !    Initial Parameters    !
                           ! (Angstroms and Degrees)  !
 --------------------------                            --------------------------
 ! Name  Definition              Value          Derivative Info.                !
 --------------------------------------------------------------------------------
 ! R1    R(1,2)                  1.3423         estimate D2E/DX2                !
 ! R2    R(1,6)                  1.3487         estimate D2E/DX2                !
 ! R3    R(1,11)                 1.1028         estimate D2E/DX2                !
 ! R4    R(2,3)                  1.34           estimate D2E/DX2                !
 ! R5    R(2,12)                 1.1033         estimate D2E/DX2                !
 ! R6    R(3,4)                  1.3402         estimate D2E/DX2                !
 ! R7    R(3,13)                 1.1027         estimate D2E/DX2                !
 ! R8    R(4,5)                  1.3433         estimate D2E/DX2                !
 ! R9    R(4,14)                 1.103          estimate D2E/DX2                !
 ! R10   R(5,6)                  1.3501         estimate D2E/DX2                !
 ! R11   R(5,10)                 1.3237         estimate D2E/DX2                !
 ! R12   R(6,7)                  1.368          estimate D2E/DX2                !
 ! R13   R(7,8)                  1.2137         estimate D2E/DX2                !
 ! R14   R(7,9)                  1.3561         estimate D2E/DX2                !
 ! R15   R(9,15)                 0.9708         estimate D2E/DX2                !
 ! A1    A(2,1,6)              121.2926         estimate D2E/DX2                !
 ! A2    A(2,1,11)             116.6021         estimate D2E/DX2                !
 ! A3    A(6,1,11)             122.1053         estimate D2E/DX2                !
 ! A4    A(1,2,3)              120.061          estimate D2E/DX2                !
 ! A5    A(1,2,12)             120.1927         estimate D2E/DX2                !
 ! A6    A(3,2,12)             119.7463         estimate D2E/DX2                !
 ! A7    A(2,3,4)              119.2486         estimate D2E/DX2                !
 ! A8    A(2,3,13)             120.3577         estimate D2E/DX2                !
 ! A9    A(4,3,13)             120.3936         estimate D2E/DX2                !
 ! A10   A(3,4,5)              120.8053         estimate D2E/DX2                !
 ! A11   A(3,4,14)             119.4205         estimate D2E/DX2                !
 ! A12   A(5,4,14)             119.7741         estimate D2E/DX2                !
 ! A13   A(4,5,6)              120.4581         estimate D2E/DX2                !
 ! A14   A(4,5,10)             117.6992         estimate D2E/DX2                !
 ! A15   A(6,5,10)             121.8426         estimate D2E/DX2                !
 ! A16   A(1,6,5)              118.1343         estimate D2E/DX2                !
 ! A17   A(1,6,7)              120.5171         estimate D2E/DX2                !
 ! A18   A(5,6,7)              121.3486         estimate D2E/DX2                !
 ! A19   A(6,7,8)              122.5631         estimate D2E/DX2                !
 ! A20   A(6,7,9)              123.3366         estimate D2E/DX2                !
 ! A21   A(8,7,9)              114.1003         estimate D2E/DX2                !
 ! A22   A(7,9,15)             108.0531         estimate D2E/DX2                !
 ! D1    D(6,1,2,3)              0.0            estimate D2E/DX2                !
 ! D2    D(6,1,2,12)           179.9997         estimate D2E/DX2                !
 ! D3    D(11,1,2,3)          -179.9943         estimate D2E/DX2                !
 ! D4    D(11,1,2,12)            0.0053         estimate D2E/DX2                !
 ! D5    D(2,1,6,5)             -0.0001         estimate D2E/DX2                !
 ! D6    D(2,1,6,7)           -179.9995         estimate D2E/DX2                !
 ! D7    D(11,1,6,5)           179.994          estimate D2E/DX2                !
 ! D8    D(11,1,6,7)            -0.0055         estimate D2E/DX2                !
 ! D9    D(1,2,3,4)              0.0001         estimate D2E/DX2                !
 ! D10   D(1,2,3,13)          -179.9965         estimate D2E/DX2                !
 ! D11   D(12,2,3,4)          -179.9995         estimate D2E/DX2                !
 ! D12   D(12,2,3,13)            0.0038         estimate D2E/DX2                !
 ! D13   D(2,3,4,5)             -0.0003         estimate D2E/DX2                !
 ! D14   D(2,3,4,14)          -179.9964         estimate D2E/DX2                !
 ! D15   D(13,3,4,5)           179.9964         estimate D2E/DX2                !
 ! D16   D(13,3,4,14)            0.0003         estimate D2E/DX2                !
 ! D17   D(3,4,5,6)              0.0002         estimate D2E/DX2                !
 ! D18   D(3,4,5,10)          -179.9999         estimate D2E/DX2                !
 ! D19   D(14,4,5,6)           179.9963         estimate D2E/DX2                !
 ! D20   D(14,4,5,10)           -0.0038         estimate D2E/DX2                !
 ! D21   D(4,5,6,1)              0.0            estimate D2E/DX2                !
 ! D22   D(4,5,6,7)            179.9994         estimate D2E/DX2                !
 ! D23   D(10,5,6,1)          -179.9999         estimate D2E/DX2                !
 ! D24   D(10,5,6,7)            -0.0004         estimate D2E/DX2                !
 ! D25   D(1,6,7,8)             -0.0004         estimate D2E/DX2                !
 ! D26   D(1,6,7,9)            179.9944         estimate D2E/DX2                !
 ! D27   D(5,6,7,8)           -179.9998         estimate D2E/DX2                !
 ! D28   D(5,6,7,9)             -0.005          estimate D2E/DX2                !
 ! D29   D(6,7,9,15)           179.9956         estimate D2E/DX2                !
 ! D30   D(8,7,9,15)            -0.0092         estimate D2E/DX2                !
 --------------------------------------------------------------------------------
 Trust Radius=3.00D-01 FncErr=1.00D-07 GrdErr=1.00D-06 EigMax=2.50D+02 EigMin=1.00D-04
 Number of steps in this run=     77 maximum allowed number of steps=    100.
 GradGradGradGradGradGradGradGradGradGradGradGradGradGradGradGradGradGrad

                          Input orientation:                          
 ---------------------------------------------------------------------
 Center     Atomic      Atomic             Coordinates (Angstroms)
 Number     Number       Type             X           Y           Z
 ---------------------------------------------------------------------
      1          6           0       -1.253600   -0.315600   -0.000900
      2          6           0       -1.259700   -1.657900   -0.001200
      3          6           0       -0.103000   -2.334400   -0.000400
      4          6           0        1.052600   -1.655600    0.000700
      5          6           0        1.061400   -0.312300    0.001000
      6          6           0       -0.097900    0.379700    0.000200
      7          6           0       -0.110200    1.747600    0.000500
      8          8           0       -1.138900    2.391600   -0.000200
      9          8           0        1.016000    2.503000    0.001700
     10          9           0        2.237400    0.295300    0.002100
     11          1           0       -2.237400    0.182700   -0.001500
     12          1           0       -2.215800   -2.208400   -0.002100
     13          1           0       -0.102300   -3.437100   -0.000700
     14          1           0        2.006400   -2.209600    0.001300
     15          1           0        0.751700    3.437100    0.001600
 ---------------------------------------------------------------------
                    Distance matrix (angstroms):
                    1          2          3          4          5
     1  C    0.000000
     2  C    1.342314   0.000000
     3  C    2.323668   1.340003   0.000000
     4  C    2.667238   2.312302   1.340217   0.000000
     5  C    2.315003   2.682937   2.333392   1.343329   0.000000
     6  C    1.348735   2.345548   2.714105   2.337968   1.350126
     7  C    2.358847   3.594271   4.082006   3.596370   2.369775
     8  O    2.709629   4.051302   4.838199   4.602445   3.486029
     9  O    3.618784   4.742563   4.965139   4.158761   2.815666
    10  F    3.544050   4.005585   3.520341   2.282491   1.323690
    11  H    1.102799   2.084156   3.300221   3.768747   3.335733
    12  H    2.123328   1.103258   2.116554   3.314820   3.786191
    13  H    3.327049   2.122529   1.102700   2.123096   3.334453
    14  H    3.770257   3.312369   2.113089   1.103019   2.119616
    15  H    4.254879   5.477660   5.834443   5.101582   3.762169
                    6          7          8          9         10
     6  C    0.000000
     7  C    1.367955   0.000000
     8  O    2.265264   1.213656   0.000000
     9  O    2.397744   1.356082   2.157778   0.000000
    10  F    2.336825   2.760508   3.974152   2.523045   0.000000
    11  H    2.148551   2.640813   2.466970   3.996050   4.476218
    12  H    3.344214   4.481461   4.724375   5.713303   5.108769
    13  H    3.816803   5.184706   5.920159   6.044451   4.405112
    14  H    3.336548   4.487697   5.573505   4.815547   2.515529
    15  H    3.173250   1.896650   2.160426   0.970772   3.475372
                   11         12         13         14         15
    11  H    0.000000
    12  H    2.391198   0.000000
    13  H    4.202571   2.444706   0.000000
    14  H    4.871647   4.222202   2.439954   0.000000
    15  H    4.418806   6.377910   6.927045   5.784418   0.000000
 Stoichiometry    C7H5FO2
 Framework group  C1[X(C7H5FO2)]
 Deg. of freedom    39
 Full point group                 C1      NOp   1
 Largest Abelian subgroup         C1      NOp   1
 Largest concise Abelian subgroup C1      NOp   1
                         Standard orientation:                         
 ---------------------------------------------------------------------
 Center     Atomic      Atomic             Coordinates (Angstroms)
 Number     Number       Type             X           Y           Z
 ---------------------------------------------------------------------
      1          6           0        0.594539   -1.396048   -0.000005
      2          6           0        1.933753   -1.304875    0.000013
      3          6           0        2.524666   -0.102199    0.000019
      4          6           0        1.763920    1.001181    0.000009
      5          6           0        0.423513    0.912629   -0.000011
      6          6           0       -0.182670   -0.293763   -0.000019
      7          6           0       -1.546084   -0.405142   -0.000027
      8          8           0       -2.113857   -1.477800   -0.000031
      9          8           0       -2.381098    0.663366    0.000069
     10          9           0       -0.267697    2.041515   -0.000021
     11          1           0        0.168830   -2.413367    0.000088
     12          1           0        2.552080   -2.218576    0.000028
     13          1           0        3.624417   -0.021605   -0.000025
     14          1           0        2.247356    1.992615   -0.000047
     15          1           0       -3.293593    0.332080   -0.000031
 ---------------------------------------------------------------------
 Rotational constants (GHZ):           2.4664268           1.2847673           0.8447402
 Standard basis: Aug-CC-pVTZ (5D, 7F)
 There are   675 symmetry adapted cartesian basis functions of A   symmetry.
 There are   575 symmetry adapted basis functions of A   symmetry.
   575 basis functions,   855 primitive gaussians,   675 cartesian basis functions
    36 alpha electrons       36 beta electrons
       nuclear repulsion energy       514.1287002696 Hartrees.
 NAtoms=   15 NActive=   15 NUniq=   15 SFac= 1.00D+00 NAtFMM=   60 NAOKFM=F Big=F
 Integral buffers will be    131072 words long.
 Raffenetti 2 integral format.
 Two-electron integral symmetry is turned on.
 One-electron integrals computed using PRISM.
 NBasis=   575 RedAO= T EigKep=  1.01D-06  NBF=   575
 NBsUse=   573 1.00D-06 EigRej=  9.68D-07 NBFU=   573
 ExpMin= 2.53D-02 ExpMax= 1.95D+04 ExpMxC= 6.65D+02 IAcc=3 IRadAn=         5 AccDes= 0.00D+00
 Harris functional with IExCor= 1009 and IRadAn=       5 diagonalized for initial guess.
 HarFok:  IExCor= 1009 AccDes= 0.00D+00 IRadAn=         5 IDoV= 1 UseB2=F ITyADJ=14
 ICtDFT=  3500011 ScaDFX=  1.000000  1.000000  1.000000  1.000000
 FoFCou: FMM=F IPFlag=           0 FMFlag=      100000 FMFlg1=           0
         NFxFlg=           0 DoJE=T BraDBF=F KetDBF=T FulRan=T
         wScrn=  0.000000 ICntrl=       500 IOpCl=  0 I1Cent=   200000004 NGrid=           0
         NMat0=    1 NMatS0=      1 NMatT0=    0 NMatD0=    1 NMtDS0=    0 NMtDT0=    0
 Petite list used in FoFCou.
 Requested convergence on RMS density matrix=1.00D-08 within 128 cycles.
 Requested convergence on MAX density matrix=1.00D-06.
 Requested convergence on             energy=1.00D-06.
 No special actions if energy rises.
 SCF Done:  E(RM062X) =  -520.034650738     A.U. after   14 cycles
            NFock= 14  Conv=0.24D-08     -V/T= 2.0031

 **********************************************************************

            Population analysis using the SCF Density.

 **********************************************************************

 Orbital symmetries:
       Occupied  (A) (A) (A) (A) (A) (A) (A) (A) (A) (A) (A) (A)
                 (A) (A) (A) (A) (A) (A) (A) (A) (A) (A) (A) (A)
                 (A) (A) (A) (A) (A) (A) (A) (A) (A) (A) (A) (A)
       Virtual   (A) (A) (A) (A) (A) (A) (A) (A) (A) (A) (A) (A)
                 (A) (A) (A) (A) (A) (A) (A) (A) (A) (A) (A) (A)
                 (A) (A) (A) (A) (A) (A) (A) (A) (A) (A) (A) (A)
                 (A) (A) (A) (A) (A) (A) (A) (A) (A) (A) (A) (A)
                 (A) (A) (A) (A) (A) (A) (A) (A) (A) (A) (A) (A)
                 (A) (A) (A) (A) (A) (A) (A) (A) (A) (A) (A) (A)
                 (A) (A) (A) (A) (A) (A) (A) (A) (A) (A) (A) (A)
                 (A) (A) (A) (A) (A) (A) (A) (A) (A) (A) (A) (A)
                 (A) (A) (A) (A) (A) (A) (A) (A) (A) (A) (A) (A)
                 (A) (A) (A) (A) (A) (A) (A) (A) (A) (A) (A) (A)
                 (A) (A) (A) (A) (A) (A) (A) (A) (A) (A) (A) (A)
                 (A) (A) (A) (A) (A) (A) (A) (A) (A) (A) (A) (A)
                 (A) (A) (A) (A) (A) (A) (A) (A) (A) (A) (A) (A)
                 (A) (A) (A) (A) (A) (A) (A) (A) (A) (A) (A) (A)
                 (A) (A) (A) (A) (A) (A) (A) (A) (A) (A) (A) (A)
                 (A) (A) (A) (A) (A) (A) (A) (A) (A) (A) (A) (A)
                 (A) (A) (A) (A) (A) (A) (A) (A) (A) (A) (A) (A)
                 (A) (A) (A) (A) (A) (A) (A) (A) (A) (A) (A) (A)
                 (A) (A) (A) (A) (A) (A) (A) (A) (A) (A) (A) (A)
                 (A) (A) (A) (A) (A) (A) (A) (A) (A) (A) (A) (A)
                 (A) (A) (A) (A) (A) (A) (A) (A) (A) (A) (A) (A)
                 (A) (A) (A) (A) (A) (A) (A) (A) (A) (A) (A) (A)
                 (A) (A) (A) (A) (A) (A) (A) (A) (A) (A) (A) (A)
                 (A) (A) (A) (A) (A) (A) (A) (A) (A) (A) (A) (A)
                 (A) (A) (A) (A) (A) (A) (A) (A) (A) (A) (A) (A)
                 (A) (A) (A) (A) (A) (A) (A) (A) (A) (A) (A) (A)
                 (A) (A) (A) (A) (A) (A) (A) (A) (A) (A) (A) (A)
                 (A) (A) (A) (A) (A) (A) (A) (A) (A) (A) (A) (A)
                 (A) (A) (A) (A) (A) (A) (A) (A) (A) (A) (A) (A)
                 (A) (A) (A) (A) (A) (A) (A) (A) (A) (A) (A) (A)
                 (A) (A) (A) (A) (A) (A) (A) (A) (A) (A) (A) (A)
                 (A) (A) (A) (A) (A) (A) (A) (A) (A) (A) (A) (A)
                 (A) (A) (A) (A) (A) (A) (A) (A) (A) (A) (A) (A)
                 (A) (A) (A) (A) (A) (A) (A) (A) (A) (A) (A) (A)
                 (A) (A) (A) (A) (A) (A) (A) (A) (A) (A) (A) (A)
                 (A) (A) (A) (A) (A) (A) (A) (A) (A) (A) (A) (A)
                 (A) (A) (A) (A) (A) (A) (A) (A) (A) (A) (A) (A)
                 (A) (A) (A) (A) (A) (A) (A) (A) (A) (A) (A) (A)
                 (A) (A) (A) (A) (A) (A) (A) (A) (A) (A) (A) (A)
                 (A) (A) (A) (A) (A) (A) (A) (A) (A) (A) (A) (A)
                 (A) (A) (A) (A) (A) (A) (A) (A) (A) (A) (A) (A)
                 (A) (A) (A) (A) (A) (A) (A) (A) (A) (A) (A) (A)
                 (A) (A) (A) (A) (A) (A) (A) (A) (A) (A) (A) (A)
                 (A) (A) (A) (A) (A) (A) (A) (A) (A) (A) (A) (A)
                 (A) (A) (A) (A) (A) (A) (A) (A) (A)
 The electronic state is 1-A.
 Alpha  occ. eigenvalues --  -25.27190 -19.66476 -19.60755 -10.67646 -10.64631
 Alpha  occ. eigenvalues --  -10.56635 -10.56541 -10.56436 -10.55751 -10.55297
 Alpha  occ. eigenvalues --   -1.39884  -1.23927  -1.12913  -1.02555  -0.91831
 Alpha  occ. eigenvalues --   -0.88351  -0.78732  -0.73549  -0.69899  -0.66307
 Alpha  occ. eigenvalues --   -0.62361  -0.59752  -0.59724  -0.56348  -0.56270
 Alpha  occ. eigenvalues --   -0.54153  -0.52233  -0.51512  -0.48181  -0.47327
 Alpha  occ. eigenvalues --   -0.45182  -0.42592  -0.39712  -0.35838  -0.34561
 Alpha  occ. eigenvalues --   -0.33293
 Alpha virt. eigenvalues --   -0.03895  -0.00962   0.00275   0.00609   0.01159
 Alpha virt. eigenvalues --    0.01926   0.02887   0.03095   0.03691   0.05432
 Alpha virt. eigenvalues --    0.05795   0.06154   0.06253   0.07118   0.07409
 Alpha virt. eigenvalues --    0.07757   0.07862   0.08827   0.09489   0.09710
 Alpha virt. eigenvalues --    0.09904   0.10193   0.10472   0.11181   0.11310
 Alpha virt. eigenvalues --    0.11403   0.12792   0.12980   0.14109   0.14222
 Alpha virt. eigenvalues --    0.16470   0.17025   0.17116   0.17700   0.18755
 Alpha virt. eigenvalues --    0.19348   0.19616   0.19737   0.20207   0.20665
 Alpha virt. eigenvalues --    0.21176   0.21474   0.21821   0.22216   0.22969
 Alpha virt. eigenvalues --    0.23512   0.23842   0.24185   0.24262   0.25352
 Alpha virt. eigenvalues --    0.25449   0.26029   0.26875   0.27046   0.27196
 Alpha virt. eigenvalues --    0.28796   0.29545   0.29881   0.30388   0.31293
 Alpha virt. eigenvalues --    0.31921   0.32162   0.32790   0.33325   0.33818
 Alpha virt. eigenvalues --    0.34015   0.35183   0.35701   0.36177   0.36307
 Alpha virt. eigenvalues --    0.36521   0.37055   0.37518   0.37847   0.38263
 Alpha virt. eigenvalues --    0.39063   0.39271   0.40623   0.40877   0.40976
 Alpha virt. eigenvalues --    0.41680   0.42791   0.43731   0.43880   0.44003
 Alpha virt. eigenvalues --    0.44388   0.44964   0.45723   0.46342   0.47903
 Alpha virt. eigenvalues --    0.48548   0.49312   0.50172   0.51348   0.51818
 Alpha virt. eigenvalues --    0.52869   0.54062   0.54864   0.55166   0.55508
 Alpha virt. eigenvalues --    0.56130   0.56628   0.56728   0.57204   0.57847
 Alpha virt. eigenvalues --    0.60514   0.61170   0.61869   0.62597   0.63515
 Alpha virt. eigenvalues --    0.64634   0.64636   0.65474   0.65944   0.67453
 Alpha virt. eigenvalues --    0.68605   0.69152   0.70109   0.71455   0.71872
 Alpha virt. eigenvalues --    0.72312   0.72389   0.73615   0.73768   0.74384
 Alpha virt. eigenvalues --    0.74965   0.75501   0.75623   0.76887   0.77049
 Alpha virt. eigenvalues --    0.77812   0.78152   0.78488   0.79094   0.79956
 Alpha virt. eigenvalues --    0.80392   0.80651   0.81842   0.81863   0.83176
 Alpha virt. eigenvalues --    0.84101   0.84940   0.85417   0.85441   0.86405
 Alpha virt. eigenvalues --    0.86837   0.87275   0.88425   0.89732   0.89924
 Alpha virt. eigenvalues --    0.90382   0.91304   0.91863   0.93069   0.93283
 Alpha virt. eigenvalues --    0.93322   0.94827   0.95148   0.95288   0.96711
 Alpha virt. eigenvalues --    0.97852   0.98936   0.99252   0.99377   0.99768
 Alpha virt. eigenvalues --    1.00538   1.01885   1.02611   1.03024   1.03814
 Alpha virt. eigenvalues --    1.04602   1.05373   1.06009   1.06723   1.07046
 Alpha virt. eigenvalues --    1.09647   1.10283   1.10302   1.10869   1.11734
 Alpha virt. eigenvalues --    1.12432   1.12991   1.13551   1.13896   1.15392
 Alpha virt. eigenvalues --    1.17616   1.17812   1.18771   1.20441   1.20623
 Alpha virt. eigenvalues --    1.21371   1.22515   1.22671   1.23788   1.23826
 Alpha virt. eigenvalues --    1.25174   1.27937   1.29723   1.30193   1.30980
 Alpha virt. eigenvalues --    1.31974   1.33337   1.33387   1.35383   1.36211
 Alpha virt. eigenvalues --    1.37538   1.37698   1.38858   1.39671   1.41470
 Alpha virt. eigenvalues --    1.42209   1.43507   1.45049   1.45105   1.47045
 Alpha virt. eigenvalues --    1.48656   1.49688   1.50066   1.51306   1.51701
 Alpha virt. eigenvalues --    1.52139   1.53323   1.54490   1.55102   1.56717
 Alpha virt. eigenvalues --    1.57827   1.59564   1.61251   1.63242   1.63608
 Alpha virt. eigenvalues --    1.64247   1.65232   1.65991   1.66699   1.67108
 Alpha virt. eigenvalues --    1.68333   1.69375   1.69771   1.71010   1.71998
 Alpha virt. eigenvalues --    1.73117   1.73904   1.76475   1.77485   1.79645
 Alpha virt. eigenvalues --    1.80454   1.81758   1.82474   1.84331   1.84789
 Alpha virt. eigenvalues --    1.86063   1.87439   1.87527   1.88678   1.89421
 Alpha virt. eigenvalues --    1.89567   1.92409   1.93326   1.93498   1.95618
 Alpha virt. eigenvalues --    1.96482   1.98856   1.99978   2.00690   2.01073
 Alpha virt. eigenvalues --    2.01206   2.04184   2.05609   2.07772   2.09319
 Alpha virt. eigenvalues --    2.10456   2.10670   2.11744   2.14050   2.14659
 Alpha virt. eigenvalues --    2.17061   2.17966   2.21541   2.22148   2.23984
 Alpha virt. eigenvalues --    2.25501   2.26610   2.28119   2.30084   2.31587
 Alpha virt. eigenvalues --    2.34488   2.35388   2.36296   2.36839   2.38617
 Alpha virt. eigenvalues --    2.41623   2.42401   2.44938   2.45542   2.47100
 Alpha virt. eigenvalues --    2.48439   2.50855   2.53622   2.54460   2.56137
 Alpha virt. eigenvalues --    2.58862   2.60063   2.60365   2.62892   2.64906
 Alpha virt. eigenvalues --    2.68790   2.68792   2.71584   2.72998   2.73359
 Alpha virt. eigenvalues --    2.75833   2.81143   2.81987   2.82522   2.82841
 Alpha virt. eigenvalues --    2.84585   2.85198   2.86872   2.90115   2.91960
 Alpha virt. eigenvalues --    2.92379   2.94881   2.96155   2.96571   2.96927
 Alpha virt. eigenvalues --    2.98735   3.00199   3.01353   3.03202   3.04232
 Alpha virt. eigenvalues --    3.04879   3.09039   3.10649   3.11636   3.12711
 Alpha virt. eigenvalues --    3.13009   3.14003   3.14711   3.15952   3.16079
 Alpha virt. eigenvalues --    3.19788   3.19942   3.21347   3.22686   3.22731
 Alpha virt. eigenvalues --    3.24274   3.25254   3.26786   3.29063   3.29682
 Alpha virt. eigenvalues --    3.31327   3.33147   3.33189   3.35072   3.37238
 Alpha virt. eigenvalues --    3.37551   3.39039   3.41952   3.42925   3.43810
 Alpha virt. eigenvalues --    3.45394   3.46552   3.47223   3.49984   3.49993
 Alpha virt. eigenvalues --    3.50996   3.51730   3.51846   3.53167   3.55983
 Alpha virt. eigenvalues --    3.57438   3.58723   3.59399   3.60775   3.62852
 Alpha virt. eigenvalues --    3.63365   3.63457   3.65640   3.66998   3.67512
 Alpha virt. eigenvalues --    3.70813   3.72848   3.74430   3.76046   3.76125
 Alpha virt. eigenvalues --    3.77296   3.78399   3.79666   3.81174   3.82119
 Alpha virt. eigenvalues --    3.85449   3.86297   3.88458   3.89510   3.89744
 Alpha virt. eigenvalues --    3.92866   3.94051   3.95275   3.95830   3.97655
 Alpha virt. eigenvalues --    3.98151   3.98642   4.01338   4.04057   4.04161
 Alpha virt. eigenvalues --    4.04823   4.06522   4.07409   4.09668   4.11160
 Alpha virt. eigenvalues --    4.12602   4.13310   4.13336   4.16688   4.19073
 Alpha virt. eigenvalues --    4.22113   4.22477   4.23257   4.23444   4.27723
 Alpha virt. eigenvalues --    4.29306   4.32702   4.34154   4.35217   4.36187
 Alpha virt. eigenvalues --    4.37135   4.40917   4.43528   4.44426   4.45610
 Alpha virt. eigenvalues --    4.50701   4.53700   4.55279   4.57895   4.59170
 Alpha virt. eigenvalues --    4.61384   4.62416   4.62666   4.64672   4.69174
 Alpha virt. eigenvalues --    4.70281   4.70399   4.73338   4.74987   4.75019
 Alpha virt. eigenvalues --    4.76191   4.77563   4.79236   4.80544   4.83176
 Alpha virt. eigenvalues --    4.86975   4.89234   4.92102   4.96703   4.99212
 Alpha virt. eigenvalues --    4.99429   4.99912   5.00560   5.05639   5.05647
 Alpha virt. eigenvalues --    5.06972   5.07272   5.15500   5.19524   5.20257
 Alpha virt. eigenvalues --    5.25069   5.26989   5.35190   5.38811   5.44018
 Alpha virt. eigenvalues --    5.46054   5.51662   5.59877   5.68091   5.71645
 Alpha virt. eigenvalues --    5.74610   5.77347   5.83344   5.88231   5.88726
 Alpha virt. eigenvalues --    5.98184   6.02575   6.10335   6.23227   6.24613
 Alpha virt. eigenvalues --    6.24827   6.29901   6.37518   6.38592   6.43836
 Alpha virt. eigenvalues --    6.44480   6.49288   6.54956   6.58693   6.63542
 Alpha virt. eigenvalues --    6.68170   6.71149   6.75552   6.79062   6.82600
 Alpha virt. eigenvalues --    6.86988   6.88013   6.91698   7.00911   7.07489
 Alpha virt. eigenvalues --    7.09183   7.12316   7.13936   7.17342   7.33115
 Alpha virt. eigenvalues --    7.39848   7.52603   7.69779   7.89395   8.02343
 Alpha virt. eigenvalues --    8.46508   8.59850   8.73703   8.74576   8.84278
 Alpha virt. eigenvalues --    8.87241   8.97390   9.01547   9.05407   9.08376
 Alpha virt. eigenvalues --    9.40227   9.45850  15.37703  15.55542  15.63430
 Alpha virt. eigenvalues --   17.05847  17.59711  18.36360  19.02945  19.95215
 Alpha virt. eigenvalues --   20.21401  20.45487
          Condensed to atoms (all electrons):
               1          2          3          4          5          6
     1  C    9.063116  -0.095279   0.038624  -0.739599  -0.133980  -1.185236
     2  C   -0.095279   7.323440  -0.310179   0.155934  -0.767127  -0.068487
     3  C    0.038624  -0.310179   6.878036  -0.010936  -0.072115  -0.612273
     4  C   -0.739599   0.155934  -0.010936   7.217890  -0.219438  -0.198343
     5  C   -0.133980  -0.767127  -0.072115  -0.219438   7.912414  -0.330761
     6  C   -1.185236  -0.068487  -0.612273  -0.198343  -0.330761   7.348808
     7  C   -0.230693   0.039739   0.134129   0.009360  -0.388227  -0.765930
     8  O    0.093392  -0.057967  -0.011663  -0.022405  -0.053223  -0.115524
     9  O   -0.013390  -0.033202   0.000418  -0.003482   0.020548  -0.037894
    10  F    0.113623   0.011779   0.044475  -0.188806  -0.074698  -0.029508
    11  H    0.508200  -0.359747   0.102380  -0.031399   0.044320  -0.274190
    12  H   -0.220513   0.574876  -0.394216   0.043381  -0.043868   0.117644
    13  H    0.059237  -0.376118   0.640476  -0.296566   0.181918  -0.081884
    14  H   -0.012757   0.106246  -0.230837   0.605770  -0.446692  -0.017018
    15  H   -0.042550  -0.001786  -0.000617   0.008851   0.010297   0.005525
               7          8          9         10         11         12
     1  C   -0.230693   0.093392  -0.013390   0.113623   0.508200  -0.220513
     2  C    0.039739  -0.057967  -0.033202   0.011779  -0.359747   0.574876
     3  C    0.134129  -0.011663   0.000418   0.044475   0.102380  -0.394216
     4  C    0.009360  -0.022405  -0.003482  -0.188806  -0.031399   0.043381
     5  C   -0.388227  -0.053223   0.020548  -0.074698   0.044320  -0.043868
     6  C   -0.765930  -0.115524  -0.037894  -0.029508  -0.274190   0.117644
     7  C    6.971820   0.067150   0.042399   0.015833   0.145248  -0.011165
     8  O    0.067150   9.282559  -0.120090  -0.002130  -0.041008  -0.002053
     9  O    0.042399  -0.120090   8.586671  -0.057430   0.002445  -0.000830
    10  F    0.015833  -0.002130  -0.057430   9.622824  -0.000736   0.001423
    11  H    0.145248  -0.041008   0.002445  -0.000736   0.745960  -0.038518
    12  H   -0.011165  -0.002053  -0.000830   0.001423  -0.038518   0.769888
    13  H    0.002319   0.000286   0.000668  -0.006300   0.001926  -0.053622
    14  H    0.001281   0.000499  -0.000398   0.012750  -0.000788  -0.000322
    15  H    0.066956  -0.116607   0.139233   0.011975  -0.000595   0.000137
              13         14         15
     1  C    0.059237  -0.012757  -0.042550
     2  C   -0.376118   0.106246  -0.001786
     3  C    0.640476  -0.230837  -0.000617
     4  C   -0.296566   0.605770   0.008851
     5  C    0.181918  -0.446692   0.010297
     6  C   -0.081884  -0.017018   0.005525
     7  C    0.002319   0.001281   0.066956
     8  O    0.000286   0.000499  -0.116607
     9  O    0.000668  -0.000398   0.139233
    10  F   -0.006300   0.012750   0.011975
    11  H    0.001926  -0.000788  -0.000595
    12  H   -0.053622  -0.000322   0.000137
    13  H    0.760562  -0.077505  -0.000061
    14  H   -0.077505   0.779404  -0.000001
    15  H   -0.000061  -0.000001   0.631831
 Mulliken charges:
               1
     1  C   -1.202197
     2  C   -0.142121
     3  C   -0.195702
     4  C   -0.330213
     5  C    0.360631
     6  C    2.245073
     7  C   -0.100218
     8  O   -0.901216
     9  O   -0.525665
    10  F   -0.475074
    11  H    0.196503
    12  H    0.257757
    13  H    0.244664
    14  H    0.280367
    15  H    0.287412
 Sum of Mulliken charges =   0.00000
 Mulliken charges with hydrogens summed into heavy atoms:
               1
     1  C   -1.005694
     2  C    0.115635
     3  C    0.048962
     4  C   -0.049846
     5  C    0.360631
     6  C    2.245073
     7  C   -0.100218
     8  O   -0.901216
     9  O   -0.238253
    10  F   -0.475074
 Electronic spatial extent (au):  <R**2>=           1272.3507
 Charge=              0.0000 electrons
 Dipole moment (field-independent basis, Debye):
    X=              2.7794    Y=              0.2466    Z=             -0.0002  Tot=              2.7903
 Quadrupole moment (field-independent basis, Debye-Ang):
   XX=            -47.1972   YY=            -59.0553   ZZ=            -57.3686
   XY=             -3.5039   XZ=              0.0003   YZ=             -0.0006
 Traceless Quadrupole moment (field-independent basis, Debye-Ang):
   XX=              7.3432   YY=             -4.5149   ZZ=             -2.8283
   XY=             -3.5039   XZ=              0.0003   YZ=             -0.0006
 Octapole moment (field-independent basis, Debye-Ang**2):
  XXX=            -20.8831  YYY=              8.0907  ZZZ=             -0.0002  XYY=             15.1630
  XXY=             16.8432  XXZ=             -0.0021  XZZ=            -11.0615  YZZ=              5.6021
  YYZ=              0.0007  XYZ=              0.0003
 Hexadecapole moment (field-independent basis, Debye-Ang**3):
 XXXX=           -829.9947 YYYY=           -499.8764 ZZZZ=            -57.6037 XXXY=            -38.6805
 XXXZ=              0.0021 YYYX=            -15.8409 YYYZ=             -0.0028 ZZZX=             -0.0004
 ZZZY=             -0.0004 XXYY=           -268.1733 XXZZ=           -192.2352 YYZZ=            -98.3041
 XXYZ=             -0.0023 YYXZ=             -0.0009 ZZXY=              1.4765
 N-N= 5.141287002696D+02 E-N=-2.247949688806D+03  KE= 5.184121854581D+02
 ******************************Gaussian NBO Version 3.1******************************
             N A T U R A L   A T O M I C   O R B I T A L   A N D
          N A T U R A L   B O N D   O R B I T A L   A N A L Y S I S
 ******************************Gaussian NBO Version 3.1******************************
       /RESON  / : Allow strongly delocalized NBO set

 Analyzing the SCF density

 Job title: o-F                                                             

 Storage needed:    994295 in NPA,   1324496 in NBO (********** available)
 GSVD:  LWork=       12231 too small for GESVD, short by      620984 words or      620984 for optimal perf.


 NATURAL POPULATIONS:  Natural atomic orbital occupancies 
                                                          
   NAO  Atom  No  lang   Type(AO)    Occupancy      Energy
 ----------------------------------------------------------
     1    C    1  S      Cor( 1S)     1.99911     -10.39679
     2    C    1  S      Val( 2S)     0.94376      -0.19578
     3    C    1  S      Ryd( 4S)     0.00159       1.98768
     4    C    1  S      Ryd( 5S)     0.00013       2.88111
     5    C    1  S      Ryd( 3S)     0.00002       1.80113
     6    C    1  px     Val( 2p)     1.07061      -0.07391
     7    C    1  px     Ryd( 4p)     0.00398       1.94959
     8    C    1  px     Ryd( 5p)     0.00008       2.60093
     9    C    1  px     Ryd( 3p)     0.00008       0.83332
    10    C    1  py     Val( 2p)     1.14560      -0.08040
    11    C    1  py     Ryd( 4p)     0.00478       1.83885
    12    C    1  py     Ryd( 5p)     0.00005       2.56701
    13    C    1  py     Ryd( 3p)     0.00005       0.99582
    14    C    1  pz     Val( 2p)     0.92813      -0.12834
    15    C    1  pz     Ryd( 4p)     0.00057       1.03680
    16    C    1  pz     Ryd( 5p)     0.00007       1.65893
    17    C    1  pz     Ryd( 3p)     0.00003       0.58216
    18    C    1  dxy    Ryd( 4d)     0.00186       3.18054
    19    C    1  dxy    Ryd( 5d)     0.00023       4.17492
    20    C    1  dxy    Ryd( 3d)     0.00007       2.69498
    21    C    1  dxz    Ryd( 3d)     0.00042       1.46176
    22    C    1  dxz    Ryd( 5d)     0.00004       3.23150
    23    C    1  dxz    Ryd( 4d)     0.00003       1.68687
    24    C    1  dyz    Ryd( 3d)     0.00036       1.36506
    25    C    1  dyz    Ryd( 5d)     0.00004       3.27761
    26    C    1  dyz    Ryd( 4d)     0.00006       1.37570
    27    C    1  dx2y2  Ryd( 4d)     0.00212       3.16639
    28    C    1  dx2y2  Ryd( 5d)     0.00018       4.22165
    29    C    1  dx2y2  Ryd( 3d)     0.00009       2.84121
    30    C    1  dz2    Ryd( 3d)     0.00096       1.92154
    31    C    1  dz2    Ryd( 4d)     0.00011       3.91988
    32    C    1  dz2    Ryd( 5d)     0.00009       4.28860
    33    C    1  f(0)   Ryd( 4f)     0.00010       1.44188
    34    C    1  f(0)   Ryd( 5f)     0.00010       3.39070
    35    C    1  f(C1)  Ryd( 4f)     0.00042       1.97933
    36    C    1  f(C1)  Ryd( 5f)     0.00028       3.65412
    37    C    1  f(S1)  Ryd( 4f)     0.00057       1.76790
    38    C    1  f(S1)  Ryd( 5f)     0.00014       3.51467
    39    C    1  f(C2)  Ryd( 4f)     0.00015       1.56342
    40    C    1  f(C2)  Ryd( 5f)     0.00003       3.38034
    41    C    1  f(S2)  Ryd( 4f)     0.00029       1.47079
    42    C    1  f(S2)  Ryd( 5f)     0.00004       3.43861
    43    C    1  f(C3)  Ryd( 4f)     0.00053       2.59989
    44    C    1  f(C3)  Ryd( 5f)     0.00014       4.02551
    45    C    1  f(S3)  Ryd( 4f)     0.00114       2.04874
    46    C    1  f(S3)  Ryd( 5f)     0.00018       4.20682
 
    47    C    2  S      Cor( 1S)     1.99912     -10.38502
    48    C    2  S      Val( 2S)     0.94504      -0.19900
    49    C    2  S      Ryd( 3S)     0.00142       1.88327
    50    C    2  S      Ryd( 5S)     0.00007       2.79875
    51    C    2  S      Ryd( 4S)     0.00002       2.00197
    52    C    2  px     Val( 2p)     1.10355      -0.08425
    53    C    2  px     Ryd( 5p)     0.00437       1.72790
    54    C    2  px     Ryd( 4p)     0.00002       1.48365
    55    C    2  px     Ryd( 3p)     0.00004       1.22729
    56    C    2  py     Val( 2p)     1.14588      -0.09159
    57    C    2  py     Ryd( 5p)     0.00440       1.71658
    58    C    2  py     Ryd( 4p)     0.00002       1.59438
    59    C    2  py     Ryd( 3p)     0.00002       1.54524
    60    C    2  pz     Val( 2p)     1.01507      -0.13362
    61    C    2  pz     Ryd( 3p)     0.00071       1.00357
    62    C    2  pz     Ryd( 5p)     0.00003       1.13206
    63    C    2  pz     Ryd( 4p)     0.00000       1.04859
    64    C    2  dxy    Ryd( 3d)     0.00192       2.40195
    65    C    2  dxy    Ryd( 5d)     0.00021       3.47369
    66    C    2  dxy    Ryd( 4d)     0.00005       2.93962
    67    C    2  dxz    Ryd( 3d)     0.00038       1.41183
    68    C    2  dxz    Ryd( 5d)     0.00002       2.81320
    69    C    2  dxz    Ryd( 4d)     0.00002       1.66367
    70    C    2  dyz    Ryd( 3d)     0.00034       1.44816
    71    C    2  dyz    Ryd( 5d)     0.00004       2.81290
    72    C    2  dyz    Ryd( 4d)     0.00003       1.63409
    73    C    2  dx2y2  Ryd( 4d)     0.00211       3.36031
    74    C    2  dx2y2  Ryd( 5d)     0.00024       3.70736
    75    C    2  dx2y2  Ryd( 3d)     0.00005       2.00790
    76    C    2  dz2    Ryd( 3d)     0.00106       1.82812
    77    C    2  dz2    Ryd( 5d)     0.00008       4.09905
    78    C    2  dz2    Ryd( 4d)     0.00011       3.32387
    79    C    2  f(0)   Ryd( 5f)     0.00013       3.48144
    80    C    2  f(0)   Ryd( 4f)     0.00001       2.15339
    81    C    2  f(C1)  Ryd( 5f)     0.00023       3.74086
    82    C    2  f(C1)  Ryd( 4f)     0.00001       2.66186
    83    C    2  f(S1)  Ryd( 5f)     0.00023       3.70234
    84    C    2  f(S1)  Ryd( 4f)     0.00001       2.85135
    85    C    2  f(C2)  Ryd( 5f)     0.00001       3.58231
    86    C    2  f(C2)  Ryd( 4f)     0.00000       2.30249
    87    C    2  f(S2)  Ryd( 5f)     0.00001       3.66517
    88    C    2  f(S2)  Ryd( 4f)     0.00002       2.28817
    89    C    2  f(C3)  Ryd( 4f)     0.00014       4.24972
    90    C    2  f(C3)  Ryd( 5f)     0.00005       5.63606
    91    C    2  f(S3)  Ryd( 5f)     0.00008       4.37352
    92    C    2  f(S3)  Ryd( 4f)     0.00010       4.06202
 
    93    C    3  S      Cor( 1S)     1.99912     -10.39666
    94    C    3  S      Val( 2S)     0.95054      -0.21271
    95    C    3  S      Ryd( 3S)     0.00140       1.99142
    96    C    3  S      Ryd( 5S)     0.00007       2.70668
    97    C    3  S      Ryd( 4S)     0.00002       2.01260
    98    C    3  px     Val( 2p)     1.17947      -0.09799
    99    C    3  px     Ryd( 5p)     0.00515       1.69200
   100    C    3  px     Ryd( 3p)     0.00003       1.62427
   101    C    3  px     Ryd( 4p)     0.00002       1.65690
   102    C    3  py     Val( 2p)     1.05909      -0.07944
   103    C    3  py     Ryd( 5p)     0.00411       1.73299
   104    C    3  py     Ryd( 4p)     0.00001       1.27959
   105    C    3  py     Ryd( 3p)     0.00003       1.16909
   106    C    3  pz     Val( 2p)     0.94691      -0.13417
   107    C    3  pz     Ryd( 3p)     0.00050       1.02648
   108    C    3  pz     Ryd( 4p)     0.00003       1.06538
   109    C    3  pz     Ryd( 5p)     0.00000       1.07665
   110    C    3  dxy    Ryd( 4d)     0.00223       3.48467
   111    C    3  dxy    Ryd( 5d)     0.00025       3.98145
   112    C    3  dxy    Ryd( 3d)     0.00004       1.36675
   113    C    3  dxz    Ryd( 4d)     0.00038       1.39597
   114    C    3  dxz    Ryd( 5d)     0.00004       3.09740
   115    C    3  dxz    Ryd( 3d)     0.00005       1.18343
   116    C    3  dyz    Ryd( 4d)     0.00066       1.41381
   117    C    3  dyz    Ryd( 5d)     0.00001       3.02962
   118    C    3  dyz    Ryd( 3d)     0.00001       1.39825
   119    C    3  dx2y2  Ryd( 3d)     0.00184       2.20775
   120    C    3  dx2y2  Ryd( 5d)     0.00017       3.65817
   121    C    3  dx2y2  Ryd( 4d)     0.00005       2.58587
   122    C    3  dz2    Ryd( 3d)     0.00095       1.94355
   123    C    3  dz2    Ryd( 5d)     0.00004       4.02070
   124    C    3  dz2    Ryd( 4d)     0.00012       3.32969
   125    C    3  f(0)   Ryd( 5f)     0.00009       3.51691
   126    C    3  f(0)   Ryd( 4f)     0.00001       2.01178
   127    C    3  f(C1)  Ryd( 5f)     0.00018       3.69968
   128    C    3  f(C1)  Ryd( 4f)     0.00002       2.58925
   129    C    3  f(S1)  Ryd( 5f)     0.00027       3.73957
   130    C    3  f(S1)  Ryd( 4f)     0.00002       2.77343
   131    C    3  f(C2)  Ryd( 5f)     0.00000       3.68429
   132    C    3  f(C2)  Ryd( 4f)     0.00002       2.03490
   133    C    3  f(S2)  Ryd( 5f)     0.00001       3.60676
   134    C    3  f(S2)  Ryd( 4f)     0.00000       2.25647
   135    C    3  f(C3)  Ryd( 4f)     0.00014       4.33136
   136    C    3  f(C3)  Ryd( 5f)     0.00006       5.07620
   137    C    3  f(S3)  Ryd( 5f)     0.00006       4.38649
   138    C    3  f(S3)  Ryd( 4f)     0.00012       3.94861
 
   139    C    4  S      Cor( 1S)     1.99903     -10.39089
   140    C    4  S      Val( 2S)     0.96019      -0.20844
   141    C    4  S      Ryd( 4S)     0.00164       1.79237
   142    C    4  S      Ryd( 5S)     0.00008       3.06387
   143    C    4  S      Ryd( 3S)     0.00003       1.71827
   144    C    4  px     Val( 2p)     1.08244      -0.09491
   145    C    4  px     Ryd( 5p)     0.00363       1.80785
   146    C    4  px     Ryd( 4p)     0.00003       1.58879
   147    C    4  px     Ryd( 3p)     0.00007       1.32612
   148    C    4  py     Val( 2p)     1.17792      -0.10836
   149    C    4  py     Ryd( 5p)     0.00435       1.79069
   150    C    4  py     Ryd( 4p)     0.00007       1.77387
   151    C    4  py     Ryd( 3p)     0.00008       1.55635
   152    C    4  pz     Val( 2p)     1.03732      -0.14374
   153    C    4  pz     Ryd( 4p)     0.00083       1.04237
   154    C    4  pz     Ryd( 5p)     0.00007       1.17117
   155    C    4  pz     Ryd( 3p)     0.00000       0.99700
   156    C    4  dxy    Ryd( 3d)     0.00180       2.60489
   157    C    4  dxy    Ryd( 5d)     0.00026       3.89687
   158    C    4  dxy    Ryd( 4d)     0.00010       2.70579
   159    C    4  dxz    Ryd( 3d)     0.00054       1.35619
   160    C    4  dxz    Ryd( 5d)     0.00001       3.14522
   161    C    4  dxz    Ryd( 4d)     0.00003       1.52995
   162    C    4  dyz    Ryd( 3d)     0.00036       1.38838
   163    C    4  dyz    Ryd( 5d)     0.00003       3.14387
   164    C    4  dyz    Ryd( 4d)     0.00005       1.40378
   165    C    4  dx2y2  Ryd( 4d)     0.00288       3.00346
   166    C    4  dx2y2  Ryd( 5d)     0.00014       4.04559
   167    C    4  dx2y2  Ryd( 3d)     0.00004       2.25785
   168    C    4  dz2    Ryd( 3d)     0.00112       1.77794
   169    C    4  dz2    Ryd( 5d)     0.00009       3.98322
   170    C    4  dz2    Ryd( 4d)     0.00008       3.39488
   171    C    4  f(0)   Ryd( 5f)     0.00016       3.51151
   172    C    4  f(0)   Ryd( 4f)     0.00003       2.08326
   173    C    4  f(C1)  Ryd( 5f)     0.00028       3.80174
   174    C    4  f(C1)  Ryd( 4f)     0.00005       2.72621
   175    C    4  f(S1)  Ryd( 5f)     0.00024       3.71088
   176    C    4  f(S1)  Ryd( 4f)     0.00003       2.81252
   177    C    4  f(C2)  Ryd( 5f)     0.00001       3.62466
   178    C    4  f(C2)  Ryd( 4f)     0.00001       2.19700
   179    C    4  f(S2)  Ryd( 5f)     0.00001       3.65245
   180    C    4  f(S2)  Ryd( 4f)     0.00002       2.35765
   181    C    4  f(C3)  Ryd( 4f)     0.00016       4.24998
   182    C    4  f(C3)  Ryd( 5f)     0.00006       5.79393
   183    C    4  f(S3)  Ryd( 5f)     0.00007       4.40669
   184    C    4  f(S3)  Ryd( 4f)     0.00012       3.69799
 
   185    C    5  S      Cor( 1S)     1.99834     -10.49829
   186    C    5  S      Val( 2S)     0.82640      -0.14208
   187    C    5  S      Ryd( 4S)     0.00188       2.36373
   188    C    5  S      Ryd( 3S)     0.00008       2.18142
   189    C    5  S      Ryd( 5S)     0.00002       2.44263
   190    C    5  px     Val( 2p)     0.95899      -0.08542
   191    C    5  px     Ryd( 4p)     0.00464       1.84185
   192    C    5  px     Ryd( 5p)     0.00013       1.86949
   193    C    5  px     Ryd( 3p)     0.00009       1.62239
   194    C    5  py     Val( 2p)     0.77574      -0.05113
   195    C    5  py     Ryd( 4p)     0.00695       1.71203
   196    C    5  py     Ryd( 3p)     0.00011       1.70945
   197    C    5  py     Ryd( 5p)     0.00007       1.73204
   198    C    5  pz     Val( 2p)     0.94093      -0.14913
   199    C    5  pz     Ryd( 4p)     0.00080       1.12055
   200    C    5  pz     Ryd( 5p)     0.00031       1.17164
   201    C    5  pz     Ryd( 3p)     0.00006       0.92266
   202    C    5  dxy    Ryd( 3d)     0.00091       3.10960
   203    C    5  dxy    Ryd( 4d)     0.00043       3.26947
   204    C    5  dxy    Ryd( 5d)     0.00008       4.10331
   205    C    5  dxz    Ryd( 3d)     0.00144       1.76226
   206    C    5  dxz    Ryd( 5d)     0.00007       2.50895
   207    C    5  dxz    Ryd( 4d)     0.00005       2.34073
   208    C    5  dyz    Ryd( 3d)     0.00223       1.71547
   209    C    5  dyz    Ryd( 5d)     0.00009       2.57112
   210    C    5  dyz    Ryd( 4d)     0.00005       2.16119
   211    C    5  dx2y2  Ryd( 3d)     0.00203       3.33049
   212    C    5  dx2y2  Ryd( 4d)     0.00025       3.38358
   213    C    5  dx2y2  Ryd( 5d)     0.00012       4.12990
   214    C    5  dz2    Ryd( 3d)     0.00066       2.43113
   215    C    5  dz2    Ryd( 4d)     0.00040       3.32726
   216    C    5  dz2    Ryd( 5d)     0.00011       3.52560
   217    C    5  f(0)   Ryd( 4f)     0.00004       1.33541
   218    C    5  f(0)   Ryd( 5f)     0.00026       3.64631
   219    C    5  f(C1)  Ryd( 4f)     0.00027       1.63965
   220    C    5  f(C1)  Ryd( 5f)     0.00029       3.84705
   221    C    5  f(S1)  Ryd( 4f)     0.00033       1.45855
   222    C    5  f(S1)  Ryd( 5f)     0.00023       3.80361
   223    C    5  f(C2)  Ryd( 4f)     0.00031       1.20167
   224    C    5  f(C2)  Ryd( 5f)     0.00004       3.66679
   225    C    5  f(S2)  Ryd( 4f)     0.00038       1.31395
   226    C    5  f(S2)  Ryd( 5f)     0.00009       3.71021
   227    C    5  f(C3)  Ryd( 4f)     0.00055       2.24313
   228    C    5  f(C3)  Ryd( 5f)     0.00011       4.42975
   229    C    5  f(S3)  Ryd( 4f)     0.00196       1.91508
   230    C    5  f(S3)  Ryd( 5f)     0.00015       4.78506
 
   231    C    6  S      Cor( 1S)     1.99874     -10.38608
   232    C    6  S      Val( 2S)     0.90029      -0.13412
   233    C    6  S      Ryd( 3S)     0.00106       2.09680
   234    C    6  S      Ryd( 4S)     0.00008       2.45117
   235    C    6  S      Ryd( 5S)     0.00004       3.96274
   236    C    6  px     Val( 2p)     1.11549      -0.12756
   237    C    6  px     Ryd( 5p)     0.00488       2.49373
   238    C    6  px     Ryd( 4p)     0.00007       2.45635
   239    C    6  px     Ryd( 3p)     0.00006       1.16910
   240    C    6  py     Val( 2p)     1.13710      -0.12360
   241    C    6  py     Ryd( 4p)     0.00513       2.24370
   242    C    6  py     Ryd( 5p)     0.00010       2.35822
   243    C    6  py     Ryd( 3p)     0.00003       1.05240
   244    C    6  pz     Val( 2p)     1.10720      -0.15303
   245    C    6  pz     Ryd( 4p)     0.00131       1.00282
   246    C    6  pz     Ryd( 5p)     0.00013       1.88260
   247    C    6  pz     Ryd( 3p)     0.00005       0.59422
   248    C    6  dxy    Ryd( 3d)     0.00073       3.24251
   249    C    6  dxy    Ryd( 4d)     0.00046       3.67159
   250    C    6  dxy    Ryd( 5d)     0.00006       5.52052
   251    C    6  dxz    Ryd( 3d)     0.00016       1.65887
   252    C    6  dxz    Ryd( 5d)     0.00008       2.96372
   253    C    6  dxz    Ryd( 4d)     0.00003       2.22022
   254    C    6  dyz    Ryd( 3d)     0.00063       1.55135
   255    C    6  dyz    Ryd( 5d)     0.00004       2.86360
   256    C    6  dyz    Ryd( 4d)     0.00002       2.32961
   257    C    6  dx2y2  Ryd( 3d)     0.00195       3.42295
   258    C    6  dx2y2  Ryd( 4d)     0.00022       3.86071
   259    C    6  dx2y2  Ryd( 5d)     0.00002       5.12423
   260    C    6  dz2    Ryd( 3d)     0.00080       2.08298
   261    C    6  dz2    Ryd( 4d)     0.00019       3.65560
   262    C    6  dz2    Ryd( 5d)     0.00008       4.05806
   263    C    6  f(0)   Ryd( 4f)     0.00056       1.65834
   264    C    6  f(0)   Ryd( 5f)     0.00027       3.34733
   265    C    6  f(C1)  Ryd( 4f)     0.00052       2.07865
   266    C    6  f(C1)  Ryd( 5f)     0.00049       3.50772
   267    C    6  f(S1)  Ryd( 4f)     0.00062       2.03900
   268    C    6  f(S1)  Ryd( 5f)     0.00038       3.57952
   269    C    6  f(C2)  Ryd( 4f)     0.00057       1.64391
   270    C    6  f(C2)  Ryd( 5f)     0.00004       3.20654
   271    C    6  f(S2)  Ryd( 4f)     0.00068       1.55853
   272    C    6  f(S2)  Ryd( 5f)     0.00007       3.34131
   273    C    6  f(C3)  Ryd( 4f)     0.00135       2.89957
   274    C    6  f(C3)  Ryd( 5f)     0.00009       4.78264
   275    C    6  f(S3)  Ryd( 4f)     0.00158       2.68488
   276    C    6  f(S3)  Ryd( 5f)     0.00031       4.07066
 
   277    C    7  S      Cor( 1S)     1.99913     -10.54000
   278    C    7  S      Val( 2S)     0.77662      -0.10504
   279    C    7  S      Ryd( 4S)     0.00400       1.98613
   280    C    7  S      Ryd( 3S)     0.00011       1.89687
   281    C    7  S      Ryd( 5S)     0.00008       2.56451
   282    C    7  px     Val( 2p)     0.90524      -0.04670
   283    C    7  px     Ryd( 5p)     0.00527       1.66076
   284    C    7  px     Ryd( 3p)     0.00025       1.21641
   285    C    7  px     Ryd( 4p)     0.00002       1.21769
   286    C    7  py     Val( 2p)     0.73643      -0.02718
   287    C    7  py     Ryd( 4p)     0.01329       1.60980
   288    C    7  py     Ryd( 3p)     0.00012       1.28601
   289    C    7  py     Ryd( 5p)     0.00007       1.76339
   290    C    7  pz     Val( 2p)     0.75940      -0.12730
   291    C    7  pz     Ryd( 5p)     0.00058       1.14977
   292    C    7  pz     Ryd( 3p)     0.00011       0.75824
   293    C    7  pz     Ryd( 4p)     0.00007       0.95158
   294    C    7  dxy    Ryd( 3d)     0.00081       3.02936
   295    C    7  dxy    Ryd( 4d)     0.00041       3.23099
   296    C    7  dxy    Ryd( 5d)     0.00005       3.30369
   297    C    7  dxz    Ryd( 3d)     0.00136       2.18942
   298    C    7  dxz    Ryd( 5d)     0.00008       2.28762
   299    C    7  dxz    Ryd( 4d)     0.00004       2.25536
   300    C    7  dyz    Ryd( 3d)     0.00204       2.22254
   301    C    7  dyz    Ryd( 4d)     0.00007       2.36405
   302    C    7  dyz    Ryd( 5d)     0.00005       2.42952
   303    C    7  dx2y2  Ryd( 4d)     0.00208       2.97160
   304    C    7  dx2y2  Ryd( 3d)     0.00018       2.75625
   305    C    7  dx2y2  Ryd( 5d)     0.00008       3.65379
   306    C    7  dz2    Ryd( 3d)     0.00047       3.00843
   307    C    7  dz2    Ryd( 4d)     0.00057       3.09598
   308    C    7  dz2    Ryd( 5d)     0.00009       3.45041
   309    C    7  f(0)   Ryd( 5f)     0.00012       3.53588
   310    C    7  f(0)   Ryd( 4f)     0.00002       2.42051
   311    C    7  f(C1)  Ryd( 5f)     0.00016       3.75995
   312    C    7  f(C1)  Ryd( 4f)     0.00002       3.27816
   313    C    7  f(S1)  Ryd( 5f)     0.00007       3.65583
   314    C    7  f(S1)  Ryd( 4f)     0.00005       3.32084
   315    C    7  f(C2)  Ryd( 5f)     0.00000       3.44915
   316    C    7  f(C2)  Ryd( 4f)     0.00007       2.56966
   317    C    7  f(S2)  Ryd( 5f)     0.00003       3.64626
   318    C    7  f(S2)  Ryd( 4f)     0.00001       2.86888
   319    C    7  f(C3)  Ryd( 4f)     0.00008       4.60460
   320    C    7  f(C3)  Ryd( 5f)     0.00002       8.15261
   321    C    7  f(S3)  Ryd( 5f)     0.00007       4.59442
   322    C    7  f(S3)  Ryd( 4f)     0.00005       4.22750
 
   323    O    8  S      Cor( 1S)     1.99979     -19.32361
   324    O    8  S      Val( 2S)     1.70700      -0.99898
   325    O    8  S      Ryd( 4S)     0.00066       2.55581
   326    O    8  S      Ryd( 3S)     0.00016       1.70929
   327    O    8  S      Ryd( 5S)     0.00001       8.94146
   328    O    8  px     Val( 2p)     1.78939      -0.33784
   329    O    8  px     Ryd( 4p)     0.00122       1.42037
   330    O    8  px     Ryd( 3p)     0.00011       1.06928
   331    O    8  px     Ryd( 5p)     0.00003       4.42505
   332    O    8  py     Val( 2p)     1.62639      -0.33535
   333    O    8  py     Ryd( 4p)     0.00118       1.51975
   334    O    8  py     Ryd( 3p)     0.00009       0.95316
   335    O    8  py     Ryd( 5p)     0.00005       4.99759
   336    O    8  pz     Val( 2p)     1.46209      -0.28866
   337    O    8  pz     Ryd( 4p)     0.00055       1.06747
   338    O    8  pz     Ryd( 3p)     0.00001       0.71790
   339    O    8  pz     Ryd( 5p)     0.00001       3.95262
   340    O    8  dxy    Ryd( 3d)     0.00722       2.05515
   341    O    8  dxy    Ryd( 4d)     0.00008       2.95069
   342    O    8  dxy    Ryd( 5d)     0.00003       6.67228
   343    O    8  dxz    Ryd( 3d)     0.00164       1.46806
   344    O    8  dxz    Ryd( 4d)     0.00001       1.59205
   345    O    8  dxz    Ryd( 5d)     0.00001       6.51463
   346    O    8  dyz    Ryd( 3d)     0.00504       1.56257
   347    O    8  dyz    Ryd( 4d)     0.00003       1.63172
   348    O    8  dyz    Ryd( 5d)     0.00003       6.47686
   349    O    8  dx2y2  Ryd( 3d)     0.00614       1.87440
   350    O    8  dx2y2  Ryd( 4d)     0.00008       2.26361
   351    O    8  dx2y2  Ryd( 5d)     0.00004       6.60890
   352    O    8  dz2    Ryd( 3d)     0.00279       1.66795
   353    O    8  dz2    Ryd( 4d)     0.00008       2.43429
   354    O    8  dz2    Ryd( 5d)     0.00000       6.58937
   355    O    8  f(0)   Ryd( 4f)     0.00012       3.18791
   356    O    8  f(0)   Ryd( 5f)     0.00001       5.45886
   357    O    8  f(C1)  Ryd( 4f)     0.00007       3.31909
   358    O    8  f(C1)  Ryd( 5f)     0.00002       5.54662
   359    O    8  f(S1)  Ryd( 4f)     0.00011       3.72345
   360    O    8  f(S1)  Ryd( 5f)     0.00001       5.76972
   361    O    8  f(C2)  Ryd( 4f)     0.00010       3.16231
   362    O    8  f(C2)  Ryd( 5f)     0.00002       5.65102
   363    O    8  f(S2)  Ryd( 4f)     0.00020       3.21773
   364    O    8  f(S2)  Ryd( 5f)     0.00001       5.58826
   365    O    8  f(C3)  Ryd( 4f)     0.00039       4.13221
   366    O    8  f(C3)  Ryd( 5f)     0.00001       6.05708
   367    O    8  f(S3)  Ryd( 4f)     0.00037       3.64913
   368    O    8  f(S3)  Ryd( 5f)     0.00003       5.91174
 
   369    O    9  S      Cor( 1S)     1.99978     -19.45179
   370    O    9  S      Val( 2S)     1.67743      -1.02812
   371    O    9  S      Ryd( 3S)     0.00039       1.39369
   372    O    9  S      Ryd( 4S)     0.00012       2.97466
   373    O    9  S      Ryd( 5S)     0.00001       9.37366
   374    O    9  px     Val( 2p)     1.44410      -0.34889
   375    O    9  px     Ryd( 4p)     0.00076       1.21465
   376    O    9  px     Ryd( 3p)     0.00012       1.01115
   377    O    9  px     Ryd( 5p)     0.00004       5.05347
   378    O    9  py     Val( 2p)     1.70690      -0.39662
   379    O    9  py     Ryd( 4p)     0.00089       1.08596
   380    O    9  py     Ryd( 3p)     0.00015       0.79059
   381    O    9  py     Ryd( 5p)     0.00006       4.78084
   382    O    9  pz     Val( 2p)     1.83875      -0.40499
   383    O    9  pz     Ryd( 4p)     0.00117       0.89313
   384    O    9  pz     Ryd( 3p)     0.00006       0.59534
   385    O    9  pz     Ryd( 5p)     0.00001       4.05998
   386    O    9  dxy    Ryd( 3d)     0.00666       2.05183
   387    O    9  dxy    Ryd( 4d)     0.00013       2.47290
   388    O    9  dxy    Ryd( 5d)     0.00004       6.86946
   389    O    9  dxz    Ryd( 3d)     0.00015       1.21919
   390    O    9  dxz    Ryd( 4d)     0.00007       1.91258
   391    O    9  dxz    Ryd( 5d)     0.00001       6.47997
   392    O    9  dyz    Ryd( 3d)     0.00482       1.31642
   393    O    9  dyz    Ryd( 4d)     0.00002       1.67426
   394    O    9  dyz    Ryd( 5d)     0.00003       6.48256
   395    O    9  dx2y2  Ryd( 3d)     0.00348       1.69735
   396    O    9  dx2y2  Ryd( 4d)     0.00009       2.16810
   397    O    9  dx2y2  Ryd( 5d)     0.00006       6.79856
   398    O    9  dz2    Ryd( 3d)     0.00320       1.51920
   399    O    9  dz2    Ryd( 4d)     0.00014       2.27781
   400    O    9  dz2    Ryd( 5d)     0.00001       6.70817
   401    O    9  f(0)   Ryd( 4f)     0.00051       2.78976
   402    O    9  f(0)   Ryd( 5f)     0.00001       5.92422
   403    O    9  f(C1)  Ryd( 4f)     0.00022       3.44760
   404    O    9  f(C1)  Ryd( 5f)     0.00001       6.22766
   405    O    9  f(S1)  Ryd( 4f)     0.00013       3.35168
   406    O    9  f(S1)  Ryd( 5f)     0.00001       6.15405
   407    O    9  f(C2)  Ryd( 4f)     0.00007       2.81954
   408    O    9  f(C2)  Ryd( 5f)     0.00001       6.08159
   409    O    9  f(S2)  Ryd( 4f)     0.00004       2.90139
   410    O    9  f(S2)  Ryd( 5f)     0.00001       5.96923
   411    O    9  f(C3)  Ryd( 4f)     0.00008       4.26682
   412    O    9  f(C3)  Ryd( 5f)     0.00004       6.48505
   413    O    9  f(S3)  Ryd( 4f)     0.00011       4.01193
   414    O    9  f(S3)  Ryd( 5f)     0.00003       6.51377
 
   415    F   10  S      Cor( 1S)     1.99993     -25.00283
   416    F   10  S      Val( 2S)     1.81847      -1.40711
   417    F   10  S      Ryd( 3S)     0.00093       2.28492
   418    F   10  S      Ryd( 4S)     0.00003       2.28561
   419    F   10  S      Ryd( 5S)     0.00001      10.84529
   420    F   10  px     Val( 2p)     1.87072      -0.51996
   421    F   10  px     Ryd( 3p)     0.00121       0.94095
   422    F   10  px     Ryd( 4p)     0.00028       1.45915
   423    F   10  px     Ryd( 5p)     0.00004       5.38003
   424    F   10  py     Val( 2p)     1.69302      -0.50063
   425    F   10  py     Ryd( 3p)     0.00051       0.91846
   426    F   10  py     Ryd( 4p)     0.00022       1.22299
   427    F   10  py     Ryd( 5p)     0.00003       5.87660
   428    F   10  pz     Val( 2p)     1.92106      -0.52683
   429    F   10  pz     Ryd( 3p)     0.00123       0.78311
   430    F   10  pz     Ryd( 4p)     0.00004       0.93710
   431    F   10  pz     Ryd( 5p)     0.00000       4.79114
   432    F   10  dxy    Ryd( 3d)     0.00107       3.91172
   433    F   10  dxy    Ryd( 4d)     0.00009       4.19794
   434    F   10  dxy    Ryd( 5d)     0.00000       8.92176
   435    F   10  dxz    Ryd( 4d)     0.00032       2.78814
   436    F   10  dxz    Ryd( 3d)     0.00005       1.99715
   437    F   10  dxz    Ryd( 5d)     0.00000       8.65441
   438    F   10  dyz    Ryd( 4d)     0.00080       2.91049
   439    F   10  dyz    Ryd( 3d)     0.00005       2.23482
   440    F   10  dyz    Ryd( 5d)     0.00001       8.69005
   441    F   10  dx2y2  Ryd( 4d)     0.00080       3.45956
   442    F   10  dx2y2  Ryd( 3d)     0.00003       3.09670
   443    F   10  dx2y2  Ryd( 5d)     0.00002       8.94187
   444    F   10  dz2    Ryd( 4d)     0.00044       3.57056
   445    F   10  dz2    Ryd( 3d)     0.00003       3.55486
   446    F   10  dz2    Ryd( 5d)     0.00000       8.77035
   447    F   10  f(0)   Ryd( 4f)     0.00006       3.72204
   448    F   10  f(0)   Ryd( 5f)     0.00000       7.79578
   449    F   10  f(C1)  Ryd( 4f)     0.00002       3.77676
   450    F   10  f(C1)  Ryd( 5f)     0.00001       7.89043
   451    F   10  f(S1)  Ryd( 4f)     0.00005       3.84874
   452    F   10  f(S1)  Ryd( 5f)     0.00001       8.00092
   453    F   10  f(C2)  Ryd( 4f)     0.00003       3.72759
   454    F   10  f(C2)  Ryd( 5f)     0.00000       8.00856
   455    F   10  f(S2)  Ryd( 4f)     0.00008       3.73908
   456    F   10  f(S2)  Ryd( 5f)     0.00002       7.91770
   457    F   10  f(C3)  Ryd( 4f)     0.00008       4.02664
   458    F   10  f(C3)  Ryd( 5f)     0.00002       8.25841
   459    F   10  f(S3)  Ryd( 4f)     0.00007       4.00096
   460    F   10  f(S3)  Ryd( 5f)     0.00002       8.26741
 
   461    H   11  S      Val( 1S)     0.75369       0.04840
   462    H   11  S      Ryd( 4S)     0.00046       1.96376
   463    H   11  S      Ryd( 2S)     0.00014       0.82491
   464    H   11  S      Ryd( 3S)     0.00004       1.59435
   465    H   11  px     Ryd( 2p)     0.00052       0.98133
   466    H   11  px     Ryd( 4p)     0.00008       4.18709
   467    H   11  px     Ryd( 3p)     0.00010       3.07233
   468    H   11  py     Ryd( 2p)     0.00080       0.89366
   469    H   11  py     Ryd( 4p)     0.00018       4.27591
   470    H   11  py     Ryd( 3p)     0.00005       4.26258
   471    H   11  pz     Ryd( 2p)     0.00016       0.59633
   472    H   11  pz     Ryd( 4p)     0.00002       3.94574
   473    H   11  pz     Ryd( 3p)     0.00004       2.08429
   474    H   11  dxy    Ryd( 3d)     0.00007       2.13938
   475    H   11  dxy    Ryd( 4d)     0.00002       4.49426
   476    H   11  dxz    Ryd( 3d)     0.00002       1.57065
   477    H   11  dxz    Ryd( 4d)     0.00000       3.70319
   478    H   11  dyz    Ryd( 3d)     0.00002       1.68405
   479    H   11  dyz    Ryd( 4d)     0.00001       3.97777
   480    H   11  dx2y2  Ryd( 3d)     0.00005       2.25689
   481    H   11  dx2y2  Ryd( 4d)     0.00003       4.50606
   482    H   11  dz2    Ryd( 3d)     0.00003       2.22225
   483    H   11  dz2    Ryd( 4d)     0.00002       4.19702
 
   484    H   12  S      Val( 1S)     0.78100       0.03079
   485    H   12  S      Ryd( 4S)     0.00031       2.03718
   486    H   12  S      Ryd( 2S)     0.00016       0.83088
   487    H   12  S      Ryd( 3S)     0.00001       1.20302
   488    H   12  px     Ryd( 2p)     0.00046       1.00102
   489    H   12  px     Ryd( 4p)     0.00008       4.06517
   490    H   12  px     Ryd( 3p)     0.00008       2.68636
   491    H   12  py     Ryd( 2p)     0.00062       1.07829
   492    H   12  py     Ryd( 4p)     0.00009       4.69782
   493    H   12  py     Ryd( 3p)     0.00005       2.99413
   494    H   12  pz     Ryd( 2p)     0.00025       0.80430
   495    H   12  pz     Ryd( 4p)     0.00008       3.23421
   496    H   12  pz     Ryd( 3p)     0.00001       2.15441
   497    H   12  dxy    Ryd( 3d)     0.00013       2.19524
   498    H   12  dxy    Ryd( 4d)     0.00003       4.28190
   499    H   12  dxz    Ryd( 3d)     0.00001       1.68441
   500    H   12  dxz    Ryd( 4d)     0.00001       3.51091
   501    H   12  dyz    Ryd( 3d)     0.00001       1.78232
   502    H   12  dyz    Ryd( 4d)     0.00000       3.70032
   503    H   12  dx2y2  Ryd( 3d)     0.00003       2.03300
   504    H   12  dx2y2  Ryd( 4d)     0.00002       4.35951
   505    H   12  dz2    Ryd( 3d)     0.00002       1.99072
   506    H   12  dz2    Ryd( 4d)     0.00003       3.70982
 
   507    H   13  S      Val( 1S)     0.78091       0.02591
   508    H   13  S      Ryd( 4S)     0.00031       2.01359
   509    H   13  S      Ryd( 2S)     0.00016       0.81311
   510    H   13  S      Ryd( 3S)     0.00001       1.10248
   511    H   13  px     Ryd( 2p)     0.00091       0.99248
   512    H   13  px     Ryd( 4p)     0.00005       5.17101
   513    H   13  px     Ryd( 3p)     0.00010       3.27235
   514    H   13  py     Ryd( 2p)     0.00033       0.94553
   515    H   13  py     Ryd( 3p)     0.00008       2.87215
   516    H   13  py     Ryd( 4p)     0.00005       3.25643
   517    H   13  pz     Ryd( 2p)     0.00011       0.76972
   518    H   13  pz     Ryd( 3p)     0.00010       2.37516
   519    H   13  pz     Ryd( 4p)     0.00001       3.06141
   520    H   13  dxy    Ryd( 3d)     0.00002       1.95822
   521    H   13  dxy    Ryd( 4d)     0.00002       4.37539
   522    H   13  dxz    Ryd( 3d)     0.00001       1.73600
   523    H   13  dxz    Ryd( 4d)     0.00001       3.92758
   524    H   13  dyz    Ryd( 3d)     0.00001       1.49792
   525    H   13  dyz    Ryd( 4d)     0.00000       3.41868
   526    H   13  dx2y2  Ryd( 3d)     0.00015       2.09227
   527    H   13  dx2y2  Ryd( 4d)     0.00002       4.27037
   528    H   13  dz2    Ryd( 3d)     0.00003       1.88592
   529    H   13  dz2    Ryd( 4d)     0.00003       3.76404
 
   530    H   14  S      Val( 1S)     0.76825       0.02222
   531    H   14  S      Ryd( 4S)     0.00040       1.98735
   532    H   14  S      Ryd( 2S)     0.00012       0.75339
   533    H   14  S      Ryd( 3S)     0.00003       1.36223
   534    H   14  px     Ryd( 2p)     0.00028       0.94829
   535    H   14  px     Ryd( 4p)     0.00008       4.19448
   536    H   14  px     Ryd( 3p)     0.00008       2.24975
   537    H   14  py     Ryd( 2p)     0.00102       0.98803
   538    H   14  py     Ryd( 4p)     0.00014       4.54903
   539    H   14  py     Ryd( 3p)     0.00004       3.55336
   540    H   14  pz     Ryd( 2p)     0.00029       0.69016
   541    H   14  pz     Ryd( 4p)     0.00005       3.78076
   542    H   14  pz     Ryd( 3p)     0.00004       1.58230
   543    H   14  dxy    Ryd( 3d)     0.00010       2.21012
   544    H   14  dxy    Ryd( 4d)     0.00003       4.40564
   545    H   14  dxz    Ryd( 3d)     0.00001       1.52282
   546    H   14  dxz    Ryd( 4d)     0.00001       3.57569
   547    H   14  dyz    Ryd( 3d)     0.00003       1.71406
   548    H   14  dyz    Ryd( 4d)     0.00001       3.89093
   549    H   14  dx2y2  Ryd( 3d)     0.00006       1.97100
   550    H   14  dx2y2  Ryd( 4d)     0.00001       4.45845
   551    H   14  dz2    Ryd( 3d)     0.00003       1.93762
   552    H   14  dz2    Ryd( 4d)     0.00003       3.84693
 
   553    H   15  S      Val( 1S)     0.49379       0.13750
   554    H   15  S      Ryd( 4S)     0.00119       1.82050
   555    H   15  S      Ryd( 3S)     0.00014       1.38756
   556    H   15  S      Ryd( 2S)     0.00012       0.84612
   557    H   15  px     Ryd( 2p)     0.00023       2.91475
   558    H   15  px     Ryd( 4p)     0.00037       3.32575
   559    H   15  px     Ryd( 3p)     0.00002       3.21237
   560    H   15  py     Ryd( 2p)     0.00021       2.20064
   561    H   15  py     Ryd( 3p)     0.00004       2.82756
   562    H   15  py     Ryd( 4p)     0.00003       3.01162
   563    H   15  pz     Ryd( 2p)     0.00051       1.75833
   564    H   15  pz     Ryd( 3p)     0.00004       2.52071
   565    H   15  pz     Ryd( 4p)     0.00001       2.79194
   566    H   15  dxy    Ryd( 3d)     0.00002       1.52542
   567    H   15  dxy    Ryd( 4d)     0.00001       4.47957
   568    H   15  dxz    Ryd( 3d)     0.00010       1.11864
   569    H   15  dxz    Ryd( 4d)     0.00000       4.24005
   570    H   15  dyz    Ryd( 3d)     0.00003       1.15964
   571    H   15  dyz    Ryd( 4d)     0.00000       3.84687
   572    H   15  dx2y2  Ryd( 3d)     0.00009       1.62866
   573    H   15  dx2y2  Ryd( 4d)     0.00001       4.58502
   574    H   15  dz2    Ryd( 3d)     0.00011       1.63653
   575    H   15  dz2    Ryd( 4d)     0.00001       4.07925

 WARNING:  1 low occupancy (<1.9990e) core orbital  found on  C    5
           1 low occupancy (<1.9990e) core orbital  found on  C    6

 WARNING:  Population inversion found on atom  C    1
           Population inversion found on atom  C    2
           Population inversion found on atom  C    3
           Population inversion found on atom  C    4
           Population inversion found on atom  C    5
           Population inversion found on atom  C    6
           Population inversion found on atom  C    7
           Population inversion found on atom  O    8
           Population inversion found on atom  O    9
           Population inversion found on atom  F   10
           Population inversion found on atom  H   11
           Population inversion found on atom  H   12
           Population inversion found on atom  H   13
           Population inversion found on atom  H   14
           Population inversion found on atom  H   15


 Summary of Natural Population Analysis:                  
                                                          
                                       Natural Population 
                Natural  -----------------------------------------------
    Atom  No    Charge         Core      Valence    Rydberg      Total
 -----------------------------------------------------------------------
      C    1   -0.10941      1.99911     4.08809    0.02221     6.10941
      C    2   -0.22751      1.99912     4.20954    0.01885     6.22751
      C    3   -0.15437      1.99912     4.13601    0.01924     6.15437
      C    4   -0.27655      1.99903     4.25787    0.01965     6.27655
      C    5    0.47052      1.99834     3.50207    0.02908     5.52948
      C    6   -0.28476      1.99874     4.26008    0.02595     6.28476
      C    7    0.79010      1.99913     3.17769    0.03308     5.20990
      O    8   -0.61344      1.99979     6.58488    0.02877     8.61344
      O    9   -0.69094      1.99978     6.66719    0.02397     8.69094
      F   10   -0.31195      1.99993     7.30328    0.00874     9.31195
      H   11    0.24345      0.00000     0.75369    0.00286     0.75655
      H   12    0.21649      0.00000     0.78100    0.00251     0.78351
      H   13    0.21656      0.00000     0.78091    0.00253     0.78344
      H   14    0.22891      0.00000     0.76825    0.00285     0.77109
      H   15    0.50290      0.00000     0.49379    0.00330     0.49710
 =======================================================================
   * Total *    0.00000     19.99208    51.76432    0.24359    72.00000

                                 Natural Population      
 --------------------------------------------------------
   Core                      19.99208 ( 99.9604% of  20)
   Valence                   51.76432 ( 99.5468% of  52)
   Natural Minimal Basis     71.75641 ( 99.6617% of  72)
   Natural Rydberg Basis      0.24359 (  0.3383% of  72)
 --------------------------------------------------------

    Atom  No          Natural Electron Configuration
 ----------------------------------------------------------------------------
      C    1      [core]2S( 0.94)2p( 3.14)4p( 0.01)
      C    2      [core]2S( 0.95)2p( 3.26)5p( 0.01)
      C    3      [core]2S( 0.95)2p( 3.19)5p( 0.01)
      C    4      [core]2S( 0.96)2p( 3.30)5p( 0.01)
      C    5      [core]2S( 0.83)2p( 2.68)3d( 0.01)4p( 0.01)
      C    6      [core]2S( 0.90)2p( 3.36)4p( 0.01)5p( 0.01)4f( 0.01)
      C    7      [core]2S( 0.78)2p( 2.40)4p( 0.01)5p( 0.01)
      O    8      [core]2S( 1.71)2p( 4.88)3d( 0.02)
      O    9      [core]2S( 1.68)2p( 4.99)3d( 0.02)
      F   10      [core]2S( 1.82)2p( 5.48)
      H   11            1S( 0.75)
      H   12            1S( 0.78)
      H   13            1S( 0.78)
      H   14            1S( 0.77)
      H   15            1S( 0.49)


 NATURAL BOND ORBITAL ANALYSIS:

                       Occupancies       Lewis Structure    Low   High
           Occ.    -------------------  -----------------   occ   occ
  Cycle   Thresh.   Lewis   Non-Lewis     CR  BD  3C  LP    (L)   (NL)   Dev
 =============================================================================
   1(1)    1.90    68.04067   3.95933     10  17   0   9     8      6    0.47
   2(2)    1.90    68.04067   3.95933     10  17   0   9     8      6    0.47
   3(1)    1.80    68.39734   3.60266     10  16   0  10     3      4    0.47
   4(2)    1.80    68.39734   3.60266     10  16   0  10     3      4    0.47
   5(1)    1.70    68.39734   3.60266     10  16   0  10     3      4    0.47
   6(2)    1.70    68.39734   3.60266     10  16   0  10     3      4    0.47
   7(1)    1.60    70.13509   1.86491     10  19   0   7     0      4    0.47
   8(2)    1.60    70.20107   1.79893     10  19   0   7     0      4    0.41
   9(3)    1.60    70.13509   1.86491     10  19   0   7     0      4    0.47
  10(4)    1.60    70.20107   1.79893     10  19   0   7     0      4    0.41
  11(1)    1.50    69.71099   2.28901     10  18   0   8     0      5    0.73
  12(2)    1.50    69.71099   2.28901     10  18   0   8     0      5    0.73
  13(1)    1.60    70.20107   1.79893     10  19   0   7     0      4    0.41
 -----------------------------------------------------------------------------

 Structure accepted: RESONANCE keyword permits strongly delocalized structure

 WARNING:  1 low occupancy (<1.9990e) core orbital  found on  C    5
           1 low occupancy (<1.9990e) core orbital  found on  C    6

 --------------------------------------------------------
   Core                     19.99212 ( 99.961% of  20)
   Valence Lewis            50.20895 ( 96.556% of  52)
  ==================       ============================
   Total Lewis              70.20107 ( 97.501% of  72)
  -----------------------------------------------------
   Valence non-Lewis         1.66055 (  2.306% of  72)
   Rydberg non-Lewis         0.13838 (  0.192% of  72)
  ==================       ============================
   Total non-Lewis           1.79893 (  2.499% of  72)
 --------------------------------------------------------


       (Occupancy)   Bond orbital/ Coefficients/ Hybrids
 ---------------------------------------------------------------------------------
     1. (1.97813) BD ( 1) C   1 - C   2  
                ( 50.06%)   0.7075* C   1 s( 36.84%)p 1.71( 62.96%)d 0.00(  0.15%)
                                                  f 0.00(  0.06%)
                                            0.0000  0.6067 -0.0174 -0.0007 -0.0015
                                            0.7916 -0.0185 -0.0054  0.0006  0.0421
                                            0.0277 -0.0012 -0.0011  0.0000  0.0000
                                            0.0000  0.0000  0.0155 -0.0018  0.0036
                                            0.0000  0.0000  0.0000  0.0000  0.0000
                                            0.0000  0.0261  0.0038 -0.0040 -0.0218
                                           -0.0016 -0.0023  0.0000  0.0000 -0.0144
                                           -0.0109 -0.0029 -0.0001  0.0000  0.0000
                                            0.0000  0.0000  0.0101  0.0087  0.0080
                                           -0.0019
                ( 49.94%)   0.7067* C   2 s( 36.55%)p 1.73( 63.27%)d 0.00(  0.15%)
                                                  f 0.00(  0.03%)
                                            0.0000  0.6044 -0.0114  0.0013 -0.0002
                                           -0.7903  0.0165  0.0018 -0.0029 -0.0830
                                            0.0318 -0.0011 -0.0018  0.0000  0.0000
                                            0.0000  0.0000  0.0006 -0.0058 -0.0021
                                            0.0000  0.0000  0.0000  0.0000  0.0000
                                            0.0000  0.0311  0.0062 -0.0012 -0.0218
                                           -0.0031  0.0007  0.0000  0.0000  0.0122
                                            0.0010  0.0028 -0.0012  0.0000  0.0000
                                            0.0000  0.0000 -0.0062 -0.0019 -0.0057
                                            0.0050
     2. (1.66017) BD ( 2) C   1 - C   2  
[...]
 ! D25   D(1,6,7,8)              0.0058         -DE/DX =    0.0                 !
 ! D26   D(1,6,7,9)           -180.0088         -DE/DX =    0.0                 !
 ! D27   D(5,6,7,8)           -179.9944         -DE/DX =    0.0                 !
 ! D28   D(5,6,7,9)             -0.009          -DE/DX =    0.0                 !
 ! D29   D(6,7,9,15)          -179.9929         -DE/DX =    0.0                 !
 ! D30   D(8,7,9,15)            -0.0073         -DE/DX =    0.0                 !
 --------------------------------------------------------------------------------
 GradGradGradGradGradGradGradGradGradGradGradGradGradGradGradGradGradGrad


 ----------------------------------------------------------------------

 Electric dipole moment (input orientation):
 (Debye = 10**-18 statcoulomb cm , SI units = C m)
                  (au)            (Debye)         (10**-30 SI)
   Tot        0.796168D+00      0.202366D+01      0.675019D+01
   x          0.860161D-01      0.218631D+00      0.729275D+00
   y         -0.791508D+00     -0.201181D+01     -0.671068D+01
   z         -0.116401D-03     -0.295861D-03     -0.986886D-03

 Dipole polarizability, Alpha (input orientation).
 (esu units = cm**3 , SI units = C**2 m**2 J**-1)
 Alpha(0;0):
               (au)            (10**-24 esu)      (10**-40 SI)
   iso        0.879492D+02      0.130327D+02      0.145009D+02
   aniso      0.571219D+02      0.846460D+01      0.941813D+01
   xx         0.962161D+02      0.142578D+02      0.158639D+02
   yx        -0.671735D+00     -0.995409D-01     -0.110754D+00
   yy         0.116002D+03      0.171897D+02      0.191261D+02
   zx         0.359597D-01      0.532867D-02      0.592895D-02
   zy         0.140679D-01      0.208465D-02      0.231949D-02
   zz         0.516298D+02      0.765075D+01      0.851261D+01

 ----------------------------------------------------------------------

 Dipole orientation:
     6         -2.46348663         -0.26942701          0.33821338
     6         -2.77509305         -0.30348197          2.92917225
     6         -0.67504784         -0.07347569          4.49004177
     6          1.71343991          0.18804771          3.45807843
     6          1.98845442          0.21809710          0.85865872
     6         -0.07677252         -0.00810390         -0.75322919
     6          0.03557059          0.00410305         -3.56441046
     8         -1.80137018         -0.19690499         -4.88570674
     8          2.36640765          0.25966843         -4.51722805
     9          4.32544908          0.47398901         -0.04714315
     1         -4.05878937         -0.44416004         -0.92531124
     1         -4.63996290         -0.50767355          3.73381236
     1         -0.89511866         -0.09751979          6.52132694
     1          3.38265147          0.37086525          4.61942327
     1          2.19033674          0.24050702         -6.33572694

 Electric dipole moment (dipole orientation):
 (Debye = 10**-18 statcoulomb cm , SI units = C m)
                  (au)            (Debye)         (10**-30 SI)
   Tot        0.796168D+00      0.202366D+01      0.675019D+01
   x          0.000000D+00      0.000000D+00      0.000000D+00
   y          0.000000D+00      0.000000D+00      0.000000D+00
   z          0.796168D+00      0.202366D+01      0.675019D+01

 Dipole polarizability, Alpha (dipole orientation).
 (esu units = cm**3 , SI units = C**2 m**2 J**-1)
 Alpha(0;0):
               (au)            (10**-24 esu)      (10**-40 SI)
   iso        0.879492D+02      0.130327D+02      0.145009D+02
   aniso      0.571219D+02      0.846460D+01      0.941813D+01
   xx         0.957734D+02      0.141921D+02      0.157909D+02
   yx         0.483429D+01      0.716369D+00      0.797067D+00
   yy         0.521592D+02      0.772920D+01      0.859989D+01
   zx        -0.146034D+01     -0.216400D+00     -0.240777D+00
   zy        -0.159406D+00     -0.236216D-01     -0.262826D-01
   zz         0.115915D+03      0.171768D+02      0.191118D+02

 ----------------------------------------------------------------------
 Unable to Open any file for archive entry.
 1\1\GINC-AE38\Freq\RM062X\Aug-CC-pVTZ\C7H5F1O2\DHUANG\02-Apr-2025\0\\#
 N Geom=AllCheck Guess=TCheck SCRF=Check GenChk RM062X/Aug-CC-pVTZ Freq
 \\o-F\\0,1\C,-1.2843822143,-0.3196070153,-0.0009261589\C,-1.3011602733
 ,-1.7005791332,-0.0012273712\C,-0.1005260952,-2.4009415258,-0.00040825
 92\C,1.1045200332,-1.7206781562,0.0007014071\C,1.1014491238,-0.3373594
 494,0.0009880233\C,-0.0836755719,0.3918451331,0.0001841394\C,-0.184944
 452,1.8772114688,0.0004006911\O,-1.2326300431,2.4666722085,-0.00022352
 68\O,0.994136547,2.5125243765,0.0016657858\F,2.2864570517,0.2735714506
 ,0.0020692262\H,-2.2008947272,0.2533573438,-0.0015467895\H,-2.24209170
 85,-2.2311376929,-0.0020941223\H,-0.1008591367,-3.4822162201,-0.000632
 8496\H,2.0543046689,-2.235637156,0.0013575968\H,0.7969967977,3.4590743
 677,0.0017922076\\Version=ES64L-G16RevC.01\State=1-A\HF=-520.0650016\R
 MSD=1.236e-09\RMSF=5.534e-05\ZeroPoint=0.1084061\Thermal=0.1163287\ETo
 t=-519.9486729\HTot=-519.9477287\GTot=-519.9903143\Dipole=0.0860161,-0
 .7915079,-0.0001164\DipoleDeriv=0.0077725,0.1923723,0.0001155,-0.10250
 18,0.208912,-0.0000233,0.0000466,0.0002369,-0.0826133,-0.0413716,0.159
 5919,0.0001139,0.2155812,-0.2507199,0.000148,0.0001247,0.0001025,-0.14
 21043,0.2201724,-0.0674701,0.0002422,0.0145868,0.1247748,0.0000579,0.0
 002612,-0.0000054,-0.1010971,-0.1065058,-0.0447992,0.0000254,-0.323842
 3,-0.2381064,-0.0002788,-0.0000328,-0.0000586,-0.1478041,1.1074205,0.2
 251081,0.0008243,0.5489253,0.5940264,0.0005345,0.0008991,0.0002986,0.1
 355893,-0.2038232,-0.1005486,-0.0001505,0.1005973,-0.6803672,-0.000063
 9,-0.0001166,-0.0001961,-0.0477133,1.6748658,0.0817606,0.0011794,0.022
 4779,2.1642347,0.0004509,0.0011659,0.0005479,0.351572,-1.0179164,0.304
 0151,-0.0005019,0.3677186,-1.1163148,0.0001441,-0.0003992,0.0000236,-0
 .3738573,-0.9684426,-0.5076206,-0.0006536,-0.5237079,-0.9087381,-0.000
 5824,-0.0007347,-0.0006209,-0.354873,-1.0534661,-0.3446336,-0.0008216,
 -0.4138931,-0.3811013,-0.000386,-0.0008377,-0.0003321,-0.1152138,0.047
 5301,0.0171769,-0.0000592,0.0315984,0.1070639,0.0000232,-0.0000553,0.0
 000115,0.1247595,-0.0213408,-0.0531282,-0.0001416,-0.0460621,0.0278654
 ,-0.0000613,-0.000138,-0.0000699,0.1413267,0.0761386,0.0024032,-0.0000
 416,0.000101,-0.0526412,-0.000038,-0.0000418,-0.0000344,0.1285028,0.00
 66679,0.0284603,-0.0001124,0.0300311,0.0565761,0.0000033,-0.0001147,-0
 .0000003,0.1537805,0.2722985,0.1073118,-0.0000185,0.0783894,0.3445357,
 0.0000718,-0.0000267,0.0000968,0.3297451\Polar=96.2160992,-0.6717354,1
 16.0015402,0.0359597,0.0140679,51.6298389\Quadrupole=-3.1359786,5.8524
 569,-2.7164783,3.4501473,0.0005278,0.0048255\PG=C01 [X(C7H5F1O2)]\NIma
 g=0\\0.71131379,-0.04270969,0.72823433,0.00044646,0.00008492,0.1451445
 5,-0.13342416,-0.04229024,-0.00006480,0.73658675,0.03381182,-0.3568694
 0,-0.00003300,0.04274543,0.70273172,-0.00004915,-0.00009521,-0.0641487
 2,0.00049341,0.00015296,0.13305601,0.04108374,0.08926346,0.00004734,-0
 .28611182,0.04992112,-0.00016820,0.67787478,0.03091045,-0.02898214,0.0
 0001785,0.12676932,-0.18426307,0.00007663,0.00591667,0.75666319,0.0000
 3502,0.00006456,0.00535051,-0.00015251,0.00001498,-0.06329089,0.000431
 09,0.00013227,0.14288808,-0.01902093,-0.03195869,-0.00002022,-0.058948
 64,0.02634401,-0.00004679,-0.30332678,-0.13368109,-0.00022326,0.767198
 31,-0.03420999,-0.06268799,-0.00004012,-0.02816407,0.07576774,-0.00000
 843,-0.05606204,-0.18789348,-0.00007150,-0.02132549,0.69853413,-0.0000
 2034,-0.00003808,-0.00213638,-0.00005827,0.00003539,0.00617218,-0.0002
 0750,-0.00013399,-0.06026698,0.00051006,0.00010207,0.12792392,-0.06056
 206,-0.03130691,-0.00005531,-0.01786004,0.03705215,-0.00000410,0.04010
 169,-0.03143041,0.00002617,-0.12465584,-0.02167996,-0.00004808,0.70201
 788,0.03376007,0.08538467,0.00004478,0.04010566,-0.07188185,0.00001823
 ,-0.10250049,-0.02295024,-0.00008711,0.06899308,-0.32882197,0.00000092
 ,-0.00036979,0.69773298,-0.00004269,-0.00000773,0.00096150,-0.00000311
 ,0.00001564,-0.00363230,0.00001141,-0.00002986,-0.00048876,-0.00002912
 ,-0.00007094,-0.07030234,0.00043436,0.00010950,0.16290491,-0.27512799,
 -0.04716967,-0.00017956,0.03521194,-0.08093619,0.00000711,-0.07541191,
 0.00254036,-0.00005800,0.03658123,0.07774226,0.00003795,-0.24976866,0.
 05271484,-0.00013690,0.70939904,-0.11516703,-0.16927844,-0.00011307,-0
 .02541957,-0.02783266,-0.00002690,-0.00055748,-0.00187028,-0.00000037,
 0.02190042,-0.02331307,0.00001126,0.12336709,-0.19838955,0.00007302,-0
 .01321715,0.65962229,-0.00019400,-0.00005803,-0.06338317,0.00001902,-0
 .00007219,0.00596881,-0.00005864,0.00000207,-0.00251831,0.00002600,0.0
 0005540,0.00892708,-0.00012188,0.00001726,-0.06662464,0.00045731,0.000
 10130,0.13927389,0.01337342,-0.02468450,0.00000488,-0.00607232,-0.0066
 3602,-0.00001231,-0.00441840,0.00082276,-0.00000239,-0.00492280,0.0039
 8604,-0.00000905,0.01521817,0.03455162,0.00001856,-0.09741273,-0.00450
 147,-0.00001412,0.91020170,-0.01983343,-0.03165540,-0.00002379,-0.0043
 3609,0.00768264,-0.00000400,0.00280966,0.00195411,0.00000295,0.0015303
 4,0.00207128,-0.00000025,0.02973420,-0.00552879,0.00002277,0.00515543,
 -0.19735854,-0.00001415,-0.16363895,0.72668772,0.00000393,-0.00002708,
 0.00187418,-0.00001182,-0.00000507,0.00783096,-0.00000187,0.00000100,-
 0.00125857,-0.00001003,0.00000239,0.00720800,0.00002066,0.00002738,0.0
 0050702,-0.00001244,-0.00003262,-0.08168710,0.00050910,0.00002953,0.21
 751672,-0.00824621,-0.00707337,-0.00000904,0.00128148,0.00246940,0.000
 00207,0.00067685,-0.00046608,0.00000032,0.00024401,0.00091188,0.000001
 60,0.00322297,-0.00238606,-0.00000026,-0.01096937,0.03261293,-0.000016
 04,-0.58199212,0.27782042,-0.00030479,0.70739987,0.00439105,-0.0006985
 3,0.00000362,0.00149679,-0.00016831,0.00000123,0.00092132,-0.00090676,
 0.00000051,0.00170819,-0.00255790,0.00000149,-0.01325654,-0.00686044,-
 0.00001294,0.04794801,-0.03779974,0.00002155,0.27274490,-0.28090462,0.
 00014983,-0.31774926,0.28867494,-0.00000526,-0.00000545,0.00031334,0.0
 0000194,0.00000175,-0.00080645,0.00000043,-0.00000048,0.00016724,0.000
 00235,0.00000052,-0.00166408,-0.00000380,-0.00000488,0.00293662,-0.000
 01246,0.00001324,0.02110901,-0.00030359,0.00015122,-0.08146865,0.00043
 606,-0.00017226,0.03436668,0.00163400,0.00147389,0.00000045,0.00168137
 ,-0.00106787,0.00000155,-0.00073427,-0.00045303,-0.00000085,0.00078819
 ,0.00011165,0.00000114,-0.01015677,-0.00429640,-0.00000850,-0.00043570
 ,-0.01262983,-0.00001459,-0.24687762,-0.06238732,-0.00017783,-0.115043
 03,-0.01068573,-0.00012756,0.43319981,0.00590843,-0.00516789,0.0000033
 0,-0.00120732,-0.00233116,-0.00000103,-0.00130969,-0.00036540,-0.00000
 120,0.00032836,0.00040873,0.00000051,-0.00684334,-0.00126965,-0.000005
 58,-0.04021633,-0.02897419,-0.00004764,-0.09571274,-0.17917076,-0.0001
 1918,0.00141624,0.03902316,0.00000369,0.00128062,0.66144841,0.00000207
 ,-0.00000071,0.00130930,0.00000133,-0.00000143,-0.00041164,-0.00000110
 ,-0.00000051,0.00019213,0.00000129,0.00000018,-0.00048248,-0.00001071,
 -0.00000423,-0.00047020,-0.00002051,-0.00001947,0.01088608,-0.00019288
 ,-0.00009157,-0.06645203,-0.00012133,-0.00000644,0.03117169,0.00034356
 ,0.00019544,0.03932553,-0.00281291,0.00588610,-0.00000690,-0.00361313,
 -0.00083776,-0.00000231,0.00391308,0.00036323,-0.00000293,-0.01637994,
 -0.02062269,-0.00002558,-0.29289999,-0.11350748,-0.00022265,-0.0478691
 8,-0.01916339,-0.00004797,-0.00485966,-0.01552692,-0.00000473,0.000731
 68,0.00421899,0.00000145,0.00510621,0.00866980,0.00000615,0.36014088,-
 0.00079008,-0.00888937,-0.00000413,-0.00524490,0.00538265,-0.00000291,
 0.01133326,-0.00588490,0.00000630,-0.06034263,-0.03197219,-0.00005715,
 -0.11250492,-0.13551509,-0.00010927,0.01189354,0.02083468,0.00001226,-
 0.00799544,-0.00820996,-0.00000782,0.00214471,0.00261783,0.00000234,0.
 00800286,-0.00627476,0.00000461,0.15317762,0.16512602,-0.00000813,0.00
 000147,0.00691503,-0.00000330,0.00000076,-0.00088302,-0.00000050,-0.00
 000250,0.00762685,-0.00003389,-0.00002552,0.01021594,-0.00022329,-0.00
 010973,-0.04564628,-0.00004070,-0.00001313,0.00661420,-0.00000205,-0.0
 0001313,-0.00437420,0.00000090,0.00000379,0.00038750,0.00000498,0.0000
 0474,0.00133993,0.00030249,0.00015372,0.02348779,-0.26847364,0.1275285
 4,-0.00015635,0.00648378,-0.00281286,0.00000008,0.00131916,-0.00097102
 ,-0.00000491,0.00018860,-0.00061754,0.00000071,-0.00166348,-0.00381431
 ,-0.00000678,-0.02029146,0.01426817,-0.00001765,-0.00321831,0.00245157
 ,0.00000132,0.00274479,0.00097374,0.00000255,0.00090170,0.00004147,0.0
 0000074,-0.00171262,0.00062738,-0.00000144,0.28306709,0.13022555,-0.13
 667737,0.00008553,0.02595184,-0.00909317,0.00001796,-0.00054547,-0.005
 51182,-0.00000304,-0.00111835,-0.00078732,-0.00000089,-0.00207707,-0.0
 0145633,-0.00000316,-0.01307361,0.01232406,-0.00000919,-0.00265484,0.0
 0047242,-0.00000137,0.00042119,-0.00286990,-0.00000029,0.00158617,0.00
 060251,0.00000162,-0.00182425,0.00030169,-0.00000144,-0.13772981,0.142
 14371,-0.00015510,0.00008380,-0.04191635,0.00000594,-0.00000563,0.0057
 0433,-0.00000501,-0.00000337,0.00716048,0.00000068,-0.00000029,-0.0008
 5436,-0.00000639,-0.00000464,0.00586338,-0.00002385,0.00001233,0.00531
 284,0.00000022,0.00000347,-0.00421095,0.00000263,0.00000014,-0.0002910
 0,0.00000089,0.,0.00014976,-0.00000191,0.00000053,0.00022417,0.0001772
 2,-0.00008748,0.02785799,0.00420814,0.00197625,0.00000116,-0.27807325,
 -0.12348250,-0.00021909,-0.01802214,-0.01517782,-0.00002007,-0.0029362
 2,0.00369853,-0.00000675,-0.00008726,0.00121858,-0.00000016,0.00176557
 ,0.00057603,-0.00000413,0.00011486,0.00034071,-0.00000024,0.00003879,-
 0.00016513,-0.00000004,-0.00001788,-0.00003615,0.00000014,0.00016363,-
 0.00016506,0.00000104,0.00052344,-0.00037560,0.00000383,0.29218401,-0.
 02875062,-0.01089023,-0.00002604,-0.12335209,-0.12814580,-0.00011814,0
 .01556966,0.01203287,0.00001437,0.00331105,-0.00075466,0.00000111,0.00
 123079,-0.00150631,0.00000060,0.00099176,-0.00518171,-0.00000156,-0.00
 166294,0.00070310,-0.00000119,0.00037460,-0.00027468,0.00000017,-0.000
 08522,-0.00085972,-0.00000031,-0.00011640,0.00033199,0.00000023,0.0004
 0224,0.00113650,0.00000144,0.13214923,0.13229743,-0.00000526,-0.000001
 37,0.00333720,-0.00021903,-0.00011818,-0.03746673,-0.00001375,-0.00001
 035,0.00308015,-0.00000684,0.00000152,0.00641115,-0.00000025,0.0000005
 2,0.00044146,-0.00000390,-0.00000212,0.00698709,-0.00000070,0.00000038
 ,0.00047903,0.00000011,-0.00000022,0.00003247,0.00000012,-0.00000016,-
 0.00019947,0.00000110,0.00000023,-0.00117505,0.00000396,0.00000082,-0.
 00430452,0.00024150,0.00012839,0.02588809,-0.00455547,0.00322257,-0.00
 000832,0.00595882,0.02728576,0.00000618,-0.06020909,0.00022614,-0.0000
 1471,0.00434090,-0.02836920,-0.00000666,-0.00378583,-0.00188466,-0.000
 00974,-0.00151525,-0.00029734,-0.00000086,-0.00030549,0.00016687,0.000
 00062,0.00029937,0.00003623,0.00000010,0.00013375,0.00005033,0.0000001
 2,-0.00067980,-0.00197994,-0.00000060,0.00023006,0.00124047,0.00000080
 ,0.00093184,-0.00070867,0.00000352,0.05817300,0.00339414,0.00010398,0.
 00000137,-0.00295095,-0.01042503,-0.00000565,-0.00011790,-0.34514532,-
 0.00006299,0.00217563,-0.01075740,-0.00000157,-0.00211037,0.00124184,-
 0.00000307,-0.00002496,0.00081064,0.00000028,0.00010003,-0.00005938,0.
 00000031,-0.00007641,-0.00011965,-0.00000013,-0.00005577,-0.00008868,-
 0.00000009,-0.00044013,-0.00096928,-0.00000046,-0.00026921,-0.00050107
 ,-0.00000023,0.00019652,0.00068995,0.00000105,0.00029248,0.36447542,-0
 .00000816,0.00000140,0.00661694,-0.00000002,0.00001843,0.00538797,-0.0
 0001477,-0.00006265,-0.04179083,-0.00000044,-0.00002631,0.00525996,-0.
 00000980,-0.00000269,0.00782798,-0.00000086,-0.00000002,-0.00049617,0.
 00000063,0.00000040,-0.00106630,0.00000009,-0.00000002,0.00017291,0.00
 000007,0.00000001,0.00002628,-0.00000032,-0.00000175,-0.00043485,0.000
 00050,0.00000096,-0.00046533,0.00000370,0.00000036,-0.00361714,0.00002
 527,0.00007025,0.02673685,0.00015180,-0.00091382,0.00000053,-0.0026393
 8,-0.00374500,-0.00000847,-0.01663722,0.01453424,-0.00001287,-0.279271
 19,0.12443545,-0.00016958,0.00147112,-0.00204417,-0.00000413,0.0011873
 5,-0.00031656,-0.00000287,0.00008825,-0.00042141,-0.00000040,0.0000297
 4,0.00000885,0.00000026,0.00008157,0.00006010,0.00000011,0.00119445,0.
 00018455,0.00000476,-0.00001016,0.00009226,0.00000036,-0.00080861,0.00
 074904,-0.00000063,0.00097598,-0.00012594,0.00000415,0.29418044,-0.001
 28738,-0.00109258,-0.00000109,-0.00351427,-0.00082455,-0.00000448,-0.0
 1478857,0.01300426,-0.00000985,0.12208694,-0.12726600,0.00007899,0.029
 93841,-0.01023191,0.00002065,-0.00098365,-0.00576935,-0.00000281,0.001
 42656,0.00096880,0.00000139,0.00033072,-0.00095084,0.,-0.00030589,-0.0
 0026027,-0.00000037,-0.00040707,0.00298103,0.00000125,0.00007971,0.000
 02171,0.00000016,-0.00079012,0.00047284,-0.00000057,0.00072001,0.00072
 664,0.00000164,-0.13250704,0.12819838,0.00000046,-0.00000083,-0.000748
 82,-0.00000842,-0.00000457,0.00694050,-0.00001890,0.00001374,0.0031048
 3,-0.00017016,0.00008085,-0.03613892,0.00000265,-0.00000496,0.00605972
 ,-0.00000316,-0.00000244,0.00469788,0.00000003,-0.00000020,0.00052027,
 0.00000035,-0.00000013,-0.00031378,0.00000002,-0.00000001,-0.00003606,
 0.00000461,0.00000174,-0.00469848,0.00000036,0.00000016,-0.00043588,-0
 .00000095,0.00000066,0.00016855,0.00000432,0.00000093,-0.00421316,0.00
 018881,-0.00008493,0.02506535,0.00045848,-0.00124393,-0.00000032,-0.00
 046140,-0.00011150,0.00000004,-0.00009768,0.00009628,-0.00000010,0.000
 12110,0.00016515,0.00000037,-0.00059189,-0.00054048,-0.00000029,-0.005
 34289,-0.00145481,-0.00000959,0.01108306,-0.05386508,-0.00001147,-0.00
 041881,0.00740860,0.00000757,-0.07026133,0.12757024,-0.00000898,-0.000
 42270,0.00165904,-0.00000026,-0.00008895,-0.00011848,-0.00000030,0.000
 01507,-0.00010242,0.00000005,0.00000721,0.00001283,-0.00000004,0.00000
 585,0.00000165,-0.00000002,0.06599485,0.00034671,-0.00083362,-0.000000
 13,-0.00058953,0.00027026,-0.00000025,0.00014651,0.00011898,0.00000012
 ,0.00004822,0.00003010,0.00000019,0.00025667,0.00005267,0.00000037,-0.
 00336464,0.00217587,-0.00000454,-0.00614502,-0.03765263,-0.00001750,0.
 00924910,0.00379543,0.00001056,0.07951188,-0.47672032,-0.00007672,0.00
 013035,0.00013964,-0.00000005,-0.00015807,-0.00010562,-0.00000024,0.00
 003652,-0.00005157,0.00000005,-0.00000106,0.00001735,-0.00000002,0.000
 00943,0.00002185,0.,-0.07947708,0.50874159,0.00000016,-0.00000166,0.00
 051088,-0.00000037,0.00000015,-0.00042101,0.,0.00000015,0.00004409,0.0
 0000038,0.00000015,-0.00027270,-0.00000023,-0.00000034,-0.00033807,-0.
 00001002,-0.00000099,0.00493252,0.00000367,-0.00006361,0.00458162,0.00
 000731,0.00000985,-0.00611349,-0.00002345,-0.00003290,-0.01634883,-0.0
 0000052,0.00000131,0.00040047,-0.00000030,-0.00000017,0.00020544,0.000
 00008,-0.00000010,-0.00006228,-0.00000004,0.,0.00005488,-0.00000002,0.
 ,0.00002800,0.00002335,0.00008816,0.01279850\\0.00001728,-0.00002991,0
 .00000133,0.00010493,-0.00005836,-0.00000068,-0.00013308,0.00004803,0.
 00000003,0.00002176,0.00011785,-0.00000084,0.00004795,-0.00014006,0.00
 000049,-0.00002836,-0.00001723,0.00001050,-0.00016120,0.00010778,-0.00
 003719,0.00012791,-0.00004867,0.00001451,-0.00004574,0.00004780,0.0000
 1118,-0.00000219,-0.00002126,0.00000080,0.00000772,0.00001827,0.000000
 03,0.00001084,0.00000063,-0.00000013,0.00001752,0.00000196,0.00000016,
 0.00000315,0.00000199,-0.00000009,0.00001153,-0.00002881,-0.00000010\\
 \@
 The archive entry for this job was punched.


 DO NOT LET SELFISH MEN OR GREEDY INTERESTS SKIN YOUR COUNTRY OF ITS
 BEAUTY, ITS RICHES, OR ITS ROMANCE. -- THEODORE ROOSEVELT
 Job cpu time:       0 days 12 hours 26 minutes 35.2 seconds.
 Elapsed time:       0 days  0 hours 37 minutes 20.7 seconds.
 File lengths (MBytes):  RWF=    371 Int=      0 D2E=      0 Chk=     31 Scr=      1
 Normal termination of Gaussian 16 at Wed Apr  2 13:00:16 2025.
