 Entering Gaussian System, Link 0=g16
 Initial command:
 /usr/local/gaussian16c01/g16/l1.exe "/scr/dhuang/Gau-289381.inp" -scrdir="/scr/dhuang/"
 Entering Link 1 = /usr/local/gaussian16c01/g16/l1.exe PID=    289383.
  
 Copyright (c) 1988-2019, Gaussian, Inc.  All Rights Reserved.
  
 This is part of the Gaussian(R) 16 program.  It is based on
 the Gaussian(R) 09 system (copyright 2009, Gaussian, Inc.),
 the Gaussian(R) 03 system (copyright 2003, Gaussian, Inc.),
 the Gaussian(R) 98 system (copyright 1998, Gaussian, Inc.),
 the Gaussian(R) 94 system (copyright 1995, Gaussian, Inc.),
 the Gaussian 92(TM) system (copyright 1992, Gaussian, Inc.),
 the Gaussian 90(TM) system (copyright 1990, Gaussian, Inc.),
 the Gaussian 88(TM) system (copyright 1988, Gaussian, Inc.),
 the Gaussian 86(TM) system (copyright 1986, Carnegie Mellon
 University), and the Gaussian 82(TM) system (copyright 1983,
 Carnegie Mellon University). Gaussian is a federally registered
 trademark of Gaussian, Inc.
  
 This software contains proprietary and confidential information,
 including trade secrets, belonging to Gaussian, Inc.
  
 This software is provided under written license and may be
 used, copied, transmitted, or stored only in accord with that
 written license.
  
 The following legend is applicable only to US Government
 contracts under FAR:
  
                    RESTRICTED RIGHTS LEGEND
  
 Use, reproduction and disclosure by the US Government is
 subject to restrictions as set forth in subparagraphs (a)
 and (c) of the Commercial Computer Software - Restricted
 Rights clause in FAR 52.227-19.
  
 Gaussian, Inc.
 340 Quinnipiac St., Bldg. 40, Wallingford CT 06492
  
  
 ---------------------------------------------------------------
 Warning -- This program may not be used in any manner that
 competes with the business of Gaussian, Inc. or will provide
 assistance to any competitor of Gaussian, Inc.  The licensee
 of this program is prohibited from giving any competitor of
 Gaussian, Inc. access to this program.  By using this program,
 the user acknowledges that Gaussian, Inc. is engaged in the
 business of creating and licensing software in the field of
 computational chemistry and represents and warrants to the
 licensee that it is not a competitor of Gaussian, Inc. and that
 it will not use this program in any manner prohibited above.
 ---------------------------------------------------------------
  

 Cite this work as:
 Gaussian 16, Revision C.01,
 M. J. Frisch, G. W. Trucks, H. B. Schlegel, G. E. Scuseria, 
 M. A. Robb, J. R. Cheeseman, G. Scalmani, V. Barone, 
 G. A. Petersson, H. Nakatsuji, X. Li, M. Caricato, A. V. Marenich, 
 J. Bloino, B. G. Janesko, R. Gomperts, B. Mennucci, H. P. Hratchian, 
 J. V. Ortiz, A. F. Izmaylov, J. L. Sonnenberg, D. Williams-Young, 
 F. Ding, F. Lipparini, F. Egidi, J. Goings, B. Peng, A. Petrone, 
 T. Henderson, D. Ranasinghe, V. G. Zakrzewski, J. Gao, N. Rega, 
 G. Zheng, W. Liang, M. Hada, M. Ehara, K. Toyota, R. Fukuda, 
 J. Hasegawa, M. Ishida, T. Nakajima, Y. Honda, O. Kitao, H. Nakai, 
 T. Vreven, K. Throssell, J. A. Montgomery, Jr., J. E. Peralta, 
 F. Ogliaro, M. J. Bearpark, J. J. Heyd, E. N. Brothers, K. N. Kudin, 
 V. N. Staroverov, T. A. Keith, R. Kobayashi, J. Normand, 
 K. Raghavachari, A. P. Rendell, J. C. Burant, S. S. Iyengar, 
 J. Tomasi, M. Cossi, J. M. Millam, M. Klene, C. Adamo, R. Cammi, 
 J. W. Ochterski, R. L. Martin, K. Morokuma, O. Farkas, 
 J. B. Foresman, and D. J. Fox, Gaussian, Inc., Wallingford CT, 2019.
 
 ******************************************
 Gaussian 16:  ES64L-G16RevC.01  3-Jul-2019
                 2-Apr-2025 
 ******************************************
 %nprocshared=20
 Will use up to   20 processors via shared memory.
 %mem=10000MW
 %chk=o-Me.chk
 ------------------------------------
 # opt freq m062x/aug-cc-pvtz pop=nbo
 ------------------------------------
 1/18=20,19=15,26=3,38=1/1,3;
 2/9=110,12=2,17=6,18=5,40=1/2;
 3/5=16,6=1,7=10,11=2,25=1,30=1,71=1,74=-55/1,2,3;
 4//1;
 5/5=2,38=5/2;
 6/7=2,8=2,9=2,10=2,28=1,40=1/1,7;
 7//1,2,3,16;
 1/18=20,19=15,26=3/3(2);
 2/9=110/2;
 99//99;
 2/9=110/2;
 3/5=16,6=1,7=10,11=2,25=1,30=1,71=1,74=-55/1,2,3;
 4/5=5,16=3,69=1/1;
 5/5=2,38=5/2;
 7//1,2,3,16;
 1/18=20,19=15,26=3/3(-5);
 2/9=110/2;
 6/7=2,8=2,9=2,10=2,19=2,28=1,40=1/1,7;
 99/9=1/99;
 ----
 o-Me
 ----
 Symbolic Z-matrix:
 Charge =  0 Multiplicity = 1
 C                    -1.7413   -0.2945   -0.0033 
 C                    -1.8054   -1.6338   -0.0035 
 C                    -0.6732   -2.3462   -0.0027 
 C                     0.5001   -1.7001   -0.0017 
 C                     0.5825   -0.3541   -0.0014 
 C                    -0.5647    0.3687   -0.0022 
 C                    -0.5848    1.7379   -0.002 
 O                    -1.6157    2.379    -0.0027 
 O                     0.5212    2.5205   -0.001 
 C                     1.9789    0.2395   -0.0002 
 H                    -2.7138    0.226    -0.004 
 H                    -2.7807   -2.1492   -0.0044 
 H                    -0.7082   -3.4484   -0.0029 
 H                     1.4165   -2.3142   -0.001 
 H                     0.2357    3.4484   -0.001 
 H                     2.7807   -0.5318    0.0004 
 H                     2.1584    0.8462   -0.916 
 H                     2.1569    0.846     0.916 
 

 GradGradGradGradGradGradGradGradGradGradGradGradGradGradGradGradGradGrad
 Berny optimization.
 Initialization pass.
                           ----------------------------
                           !    Initial Parameters    !
                           ! (Angstroms and Degrees)  !
 --------------------------                            --------------------------
 ! Name  Definition              Value          Derivative Info.                !
 --------------------------------------------------------------------------------
 ! R1    R(1,2)                  1.3408         estimate D2E/DX2                !
 ! R2    R(1,6)                  1.3506         estimate D2E/DX2                !
 ! R3    R(1,11)                 1.103          estimate D2E/DX2                !
 ! R4    R(2,3)                  1.3377         estimate D2E/DX2                !
 ! R5    R(2,12)                 1.1031         estimate D2E/DX2                !
 ! R6    R(3,4)                  1.3394         estimate D2E/DX2                !
 ! R7    R(3,13)                 1.1028         estimate D2E/DX2                !
 ! R8    R(4,5)                  1.3485         estimate D2E/DX2                !
 ! R9    R(4,14)                 1.1031         estimate D2E/DX2                !
 ! R10   R(5,6)                  1.3559         estimate D2E/DX2                !
 ! R11   R(5,10)                 1.5173         estimate D2E/DX2                !
 ! R12   R(6,7)                  1.3693         estimate D2E/DX2                !
 ! R13   R(7,8)                  1.214          estimate D2E/DX2                !
 ! R14   R(7,9)                  1.3549         estimate D2E/DX2                !
 ! R15   R(9,15)                 0.9708         estimate D2E/DX2                !
 ! R16   R(10,16)                1.1126         estimate D2E/DX2                !
 ! R17   R(10,17)                1.1131         estimate D2E/DX2                !
 ! R18   R(10,18)                1.1131         estimate D2E/DX2                !
 ! A1    A(2,1,6)              122.1483         estimate D2E/DX2                !
 ! A2    A(2,1,11)             115.4164         estimate D2E/DX2                !
 ! A3    A(6,1,11)             122.4354         estimate D2E/DX2                !
 ! A4    A(1,2,3)              119.4387         estimate D2E/DX2                !
 ! A5    A(1,2,12)             120.5945         estimate D2E/DX2                !
 ! A6    A(3,2,12)             119.9669         estimate D2E/DX2                !
 ! A7    A(2,3,4)              118.981          estimate D2E/DX2                !
 ! A8    A(2,3,13)             120.36           estimate D2E/DX2                !
 ! A9    A(4,3,13)             120.659          estimate D2E/DX2                !
 ! A10   A(3,4,5)              122.3434         estimate D2E/DX2                !
 ! A11   A(3,4,14)             117.3329         estimate D2E/DX2                !
 ! A12   A(5,4,14)             120.3237         estimate D2E/DX2                !
 ! A13   A(4,5,6)              118.71           estimate D2E/DX2                !
 ! A14   A(4,5,10)             116.5332         estimate D2E/DX2                !
 ! A15   A(6,5,10)             124.7568         estimate D2E/DX2                !
 ! A16   A(1,6,5)              118.3787         estimate D2E/DX2                !
 ! A17   A(1,6,7)              118.5671         estimate D2E/DX2                !
 ! A18   A(5,6,7)              123.0543         estimate D2E/DX2                !
 ! A19   A(6,7,8)              122.7178         estimate D2E/DX2                !
 ! A20   A(6,7,9)              124.442          estimate D2E/DX2                !
 ! A21   A(8,7,9)              112.8402         estimate D2E/DX2                !
 ! A22   A(7,9,15)             108.1807         estimate D2E/DX2                !
 ! A23   A(5,10,16)            113.0807         estimate D2E/DX2                !
 ! A24   A(5,10,17)            111.161          estimate D2E/DX2                !
 ! A25   A(5,10,18)            111.1609         estimate D2E/DX2                !
 ! A26   A(16,10,17)           105.1943         estimate D2E/DX2                !
 ! A27   A(16,10,18)           105.1922         estimate D2E/DX2                !
 ! A28   A(17,10,18)           110.7591         estimate D2E/DX2                !
 ! D1    D(6,1,2,3)             -0.0056         estimate D2E/DX2                !
 ! D2    D(6,1,2,12)           179.9995         estimate D2E/DX2                !
 ! D3    D(11,1,2,3)           179.9999         estimate D2E/DX2                !
 ! D4    D(11,1,2,12)            0.0049         estimate D2E/DX2                !
 ! D5    D(2,1,6,5)              0.006          estimate D2E/DX2                !
 ! D6    D(2,1,6,7)           -179.9966         estimate D2E/DX2                !
 ! D7    D(11,1,6,5)          -179.9998         estimate D2E/DX2                !
 ! D8    D(11,1,6,7)            -0.0025         estimate D2E/DX2                !
 ! D9    D(1,2,3,4)              0.0008         estimate D2E/DX2                !
 ! D10   D(1,2,3,13)          -179.997          estimate D2E/DX2                !
 ! D11   D(12,2,3,4)           179.9957         estimate D2E/DX2                !
 ! D12   D(12,2,3,13)           -0.0021         estimate D2E/DX2                !
 ! D13   D(2,3,4,5)              0.0035         estimate D2E/DX2                !
 ! D14   D(2,3,4,14)           179.9967         estimate D2E/DX2                !
 ! D15   D(13,3,4,5)          -179.9987         estimate D2E/DX2                !
 ! D16   D(13,3,4,14)           -0.0055         estimate D2E/DX2                !
 ! D17   D(3,4,5,6)             -0.003          estimate D2E/DX2                !
 ! D18   D(3,4,5,10)           179.9983         estimate D2E/DX2                !
 ! D19   D(14,4,5,6)          -179.9959         estimate D2E/DX2                !
 ! D20   D(14,4,5,10)            0.0053         estimate D2E/DX2                !
 ! D21   D(4,5,6,1)             -0.0017         estimate D2E/DX2                !
 ! D22   D(4,5,6,7)           -179.9989         estimate D2E/DX2                !
 ! D23   D(10,5,6,1)           179.9969         estimate D2E/DX2                !
 ! D24   D(10,5,6,7)            -0.0003         estimate D2E/DX2                !
 ! D25   D(4,5,10,16)           -0.0059         estimate D2E/DX2                !
 ! D26   D(4,5,10,17)          118.0578         estimate D2E/DX2                !
 ! D27   D(4,5,10,18)         -118.0668         estimate D2E/DX2                !
 ! D28   D(6,5,10,16)          179.9954         estimate D2E/DX2                !
 ! D29   D(6,5,10,17)          -61.9408         estimate D2E/DX2                !
 ! D30   D(6,5,10,18)           61.9345         estimate D2E/DX2                !
 ! D31   D(1,6,7,8)              0.0039         estimate D2E/DX2                !
 ! D32   D(1,6,7,9)           -179.997          estimate D2E/DX2                !
 ! D33   D(5,6,7,8)           -179.9989         estimate D2E/DX2                !
 ! D34   D(5,6,7,9)              0.0002         estimate D2E/DX2                !
 ! D35   D(6,7,9,15)          -179.995          estimate D2E/DX2                !
 ! D36   D(8,7,9,15)             0.0041         estimate D2E/DX2                !
 --------------------------------------------------------------------------------
 Trust Radius=3.00D-01 FncErr=1.00D-07 GrdErr=1.00D-06 EigMax=2.50D+02 EigMin=1.00D-04
 Number of steps in this run=     92 maximum allowed number of steps=    108.
 GradGradGradGradGradGradGradGradGradGradGradGradGradGradGradGradGradGrad

                          Input orientation:                          
 ---------------------------------------------------------------------
 Center     Atomic      Atomic             Coordinates (Angstroms)
 Number     Number       Type             X           Y           Z
 ---------------------------------------------------------------------
      1          6           0       -1.741300   -0.294500   -0.003300
      2          6           0       -1.805400   -1.633800   -0.003500
      3          6           0       -0.673200   -2.346200   -0.002700
      4          6           0        0.500100   -1.700100   -0.001700
      5          6           0        0.582500   -0.354100   -0.001400
      6          6           0       -0.564700    0.368700   -0.002200
      7          6           0       -0.584800    1.737900   -0.002000
      8          8           0       -1.615700    2.379000   -0.002700
      9          8           0        0.521200    2.520500   -0.001000
     10          6           0        1.978900    0.239500   -0.000200
     11          1           0       -2.713800    0.226000   -0.004000
     12          1           0       -2.780700   -2.149200   -0.004400
     13          1           0       -0.708200   -3.448400   -0.002900
     14          1           0        1.416500   -2.314200   -0.001000
     15          1           0        0.235700    3.448400   -0.001000
     16          1           0        2.780700   -0.531800    0.000400
     17          1           0        2.158400    0.846200   -0.916000
     18          1           0        2.156900    0.846000    0.916000
 ---------------------------------------------------------------------
                    Distance matrix (angstroms):
                    1          2          3          4          5
     1  C    0.000000
     2  C    1.340833   0.000000
     3  C    2.313074   1.337681   0.000000
     4  C    2.645673   2.306454   1.339432   0.000000
     5  C    2.324565   2.709189   2.354835   1.348520   0.000000
     6  C    1.350638   2.355705   2.717067   2.326743   1.355916
     7  C    2.338406   3.585837   4.085057   3.605115   2.395632
     8  O    2.676449   4.017281   4.818280   4.595179   3.507409
     9  O    3.611528   4.761437   5.011124   4.220653   2.875254
    10  C    3.758331   4.222581   3.703982   2.439037   1.517332
    11  H    1.103031   2.069794   3.283331   3.746868   3.346956
    12  H    2.126092   1.103108   2.116688   3.311396   3.812284
    13  H    3.318792   2.120524   1.102756   2.125216   3.352701
    14  H    3.748452   3.292961   2.089946   1.103136   2.130152
    15  H    4.232946   5.476756   5.865449   5.155285   3.818282
    16  H    4.528224   4.716644   3.901472   2.562434   2.205372
    17  H    4.164358   4.763902   4.363885   3.173255   2.181897
    18  H    4.164351   4.763896   4.363899   3.173292   2.181879
                    6          7          8          9         10
     6  C    0.000000
     7  C    1.369348   0.000000
     8  O    2.268459   1.213987   0.000000
     9  O    2.410275   1.354880   2.141580   0.000000
    10  C    2.546880   2.969472   4.183135   2.707000   0.000000
    11  H    2.153833   2.611223   2.416865   3.966102   4.692721
    12  H    3.354174   4.464474   4.675663   5.719148   5.325382
    13  H    3.819796   5.187768   5.897639   6.094194   4.563017
    14  H    3.335132   4.519371   5.587519   4.916898   2.614895
    15  H    3.182011   1.897111   2.138060   0.970829   3.651820
    16  H    3.464478   4.059327   5.272675   3.797615   1.112559
    17  H    2.911754   3.025834   4.174617   2.514146   1.113101
    18  H    2.911703   3.025744   4.174519   2.514031   1.113081
                   11         12         13         14         15
    11  H    0.000000
    12  H    2.376142   0.000000
    13  H    4.186126   2.446054   0.000000
    14  H    4.848918   4.200443   2.408477   0.000000
    15  H    4.368458   6.358601   6.961092   5.882333   0.000000
    16  H    5.546513   5.791820   4.547416   2.244547   4.724301
    17  H    4.995470   5.847918   5.243542   3.372798   3.362357
    18  H    4.995450   5.847927   5.243572   3.372825   3.362199
                   16         17         18
    16  H    0.000000
    17  H    1.768030   0.000000
    18  H    1.767988   1.832001   0.000000
 Stoichiometry    C8H8O2
 Framework group  C1[X(C8H8O2)]
 Deg. of freedom    48
 Full point group                 C1      NOp   1
 Largest Abelian subgroup         C1      NOp   1
 Largest concise Abelian subgroup C1      NOp   1
                         Standard orientation:                         
 ---------------------------------------------------------------------
 Center     Atomic      Atomic             Coordinates (Angstroms)
 Number     Number       Type             X           Y           Z
 ---------------------------------------------------------------------
      1          6           0       -0.617782   -1.404791    0.000049
      2          6           0       -1.956271   -1.325535   -0.000016
      3          6           0       -2.543720   -0.123747   -0.000025
      4          6           0       -1.776047    0.973866    0.000016
      5          6           0       -0.428942    0.912091   -0.000003
      6          6           0        0.167246   -0.305721   -0.000004
      7          6           0        1.526475   -0.471888   -0.000001
      8          8           0        2.053847   -1.565343   -0.000022
      9          8           0        2.422683    0.544237    0.000009
     10          6           0        0.310350    2.237135    0.000009
     11          1           0       -0.204085   -2.427303    0.000055
     12          1           0       -2.572852   -2.240235    0.000022
     13          1           0       -3.643357   -0.040872   -0.000030
     14          1           0       -2.288798    1.950593   -0.000050
     15          1           0        3.314798    0.161303   -0.000071
     16          1           0       -0.370937    3.116700   -0.000074
     17          1           0        0.932523    2.350123    0.916049
     18          1           0        0.932612    2.350078   -0.915952
 ---------------------------------------------------------------------
 Rotational constants (GHZ):           2.3928035           1.2663134           0.8326944
 Standard basis: Aug-CC-pVTZ (5D, 7F)
 There are   750 symmetry adapted cartesian basis functions of A   symmetry.
 There are   644 symmetry adapted basis functions of A   symmetry.
   644 basis functions,   936 primitive gaussians,   750 cartesian basis functions
    36 alpha electrons       36 beta electrons
       nuclear repulsion energy       510.0584891094 Hartrees.
 NAtoms=   18 NActive=   18 NUniq=   18 SFac= 1.00D+00 NAtFMM=   60 NAOKFM=F Big=F
 Integral buffers will be    131072 words long.
 Raffenetti 2 integral format.
 Two-electron integral symmetry is turned on.
 One-electron integrals computed using PRISM.
 NBasis=   644 RedAO= T EigKep=  1.18D-06  NBF=   644
 NBsUse=   640 1.00D-06 EigRej=  8.80D-07 NBFU=   640
 ExpMin= 2.53D-02 ExpMax= 1.53D+04 ExpMxC= 5.22D+02 IAcc=3 IRadAn=         5 AccDes= 0.00D+00
 Harris functional with IExCor= 1009 and IRadAn=       5 diagonalized for initial guess.
 HarFok:  IExCor= 1009 AccDes= 0.00D+00 IRadAn=         5 IDoV= 1 UseB2=F ITyADJ=14
 ICtDFT=  3500011 ScaDFX=  1.000000  1.000000  1.000000  1.000000
 FoFCou: FMM=F IPFlag=           0 FMFlag=      100000 FMFlg1=           0
         NFxFlg=           0 DoJE=T BraDBF=F KetDBF=T FulRan=T
         wScrn=  0.000000 ICntrl=       500 IOpCl=  0 I1Cent=   200000004 NGrid=           0
         NMat0=    1 NMatS0=      1 NMatT0=    0 NMatD0=    1 NMtDS0=    0 NMtDT0=    0
 Petite list used in FoFCou.
 Requested convergence on RMS density matrix=1.00D-08 within 128 cycles.
 Requested convergence on MAX density matrix=1.00D-06.
 Requested convergence on             energy=1.00D-06.
 No special actions if energy rises.
 SCF Done:  E(RM062X) =  -460.092200188     A.U. after   13 cycles
            NFock= 13  Conv=0.84D-08     -V/T= 2.0033

 **********************************************************************

            Population analysis using the SCF Density.

 **********************************************************************

 Orbital symmetries:
       Occupied  (A) (A) (A) (A) (A) (A) (A) (A) (A) (A) (A) (A)
                 (A) (A) (A) (A) (A) (A) (A) (A) (A) (A) (A) (A)
                 (A) (A) (A) (A) (A) (A) (A) (A) (A) (A) (A) (A)
       Virtual   (A) (A) (A) (A) (A) (A) (A) (A) (A) (A) (A) (A)
                 (A) (A) (A) (A) (A) (A) (A) (A) (A) (A) (A) (A)
                 (A) (A) (A) (A) (A) (A) (A) (A) (A) (A) (A) (A)
                 (A) (A) (A) (A) (A) (A) (A) (A) (A) (A) (A) (A)
                 (A) (A) (A) (A) (A) (A) (A) (A) (A) (A) (A) (A)
                 (A) (A) (A) (A) (A) (A) (A) (A) (A) (A) (A) (A)
                 (A) (A) (A) (A) (A) (A) (A) (A) (A) (A) (A) (A)
                 (A) (A) (A) (A) (A) (A) (A) (A) (A) (A) (A) (A)
                 (A) (A) (A) (A) (A) (A) (A) (A) (A) (A) (A) (A)
                 (A) (A) (A) (A) (A) (A) (A) (A) (A) (A) (A) (A)
                 (A) (A) (A) (A) (A) (A) (A) (A) (A) (A) (A) (A)
                 (A) (A) (A) (A) (A) (A) (A) (A) (A) (A) (A) (A)
                 (A) (A) (A) (A) (A) (A) (A) (A) (A) (A) (A) (A)
                 (A) (A) (A) (A) (A) (A) (A) (A) (A) (A) (A) (A)
                 (A) (A) (A) (A) (A) (A) (A) (A) (A) (A) (A) (A)
                 (A) (A) (A) (A) (A) (A) (A) (A) (A) (A) (A) (A)
                 (A) (A) (A) (A) (A) (A) (A) (A) (A) (A) (A) (A)
                 (A) (A) (A) (A) (A) (A) (A) (A) (A) (A) (A) (A)
                 (A) (A) (A) (A) (A) (A) (A) (A) (A) (A) (A) (A)
                 (A) (A) (A) (A) (A) (A) (A) (A) (A) (A) (A) (A)
                 (A) (A) (A) (A) (A) (A) (A) (A) (A) (A) (A) (A)
                 (A) (A) (A) (A) (A) (A) (A) (A) (A) (A) (A) (A)
                 (A) (A) (A) (A) (A) (A) (A) (A) (A) (A) (A) (A)
                 (A) (A) (A) (A) (A) (A) (A) (A) (A) (A) (A) (A)
                 (A) (A) (A) (A) (A) (A) (A) (A) (A) (A) (A) (A)
                 (A) (A) (A) (A) (A) (A) (A) (A) (A) (A) (A) (A)
                 (A) (A) (A) (A) (A) (A) (A) (A) (A) (A) (A) (A)
                 (A) (A) (A) (A) (A) (A) (A) (A) (A) (A) (A) (A)
                 (A) (A) (A) (A) (A) (A) (A) (A) (A) (A) (A) (A)
                 (A) (A) (A) (A) (A) (A) (A) (A) (A) (A) (A) (A)
                 (A) (A) (A) (A) (A) (A) (A) (A) (A) (A) (A) (A)
                 (A) (A) (A) (A) (A) (A) (A) (A) (A) (A) (A) (A)
                 (A) (A) (A) (A) (A) (A) (A) (A) (A) (A) (A) (A)
                 (A) (A) (A) (A) (A) (A) (A) (A) (A) (A) (A) (A)
                 (A) (A) (A) (A) (A) (A) (A) (A) (A) (A) (A) (A)
                 (A) (A) (A) (A) (A) (A) (A) (A) (A) (A) (A) (A)
                 (A) (A) (A) (A) (A) (A) (A) (A) (A) (A) (A) (A)
                 (A) (A) (A) (A) (A) (A) (A) (A) (A) (A) (A) (A)
                 (A) (A) (A) (A) (A) (A) (A) (A) (A) (A) (A) (A)
                 (A) (A) (A) (A) (A) (A) (A) (A) (A) (A) (A) (A)
                 (A) (A) (A) (A) (A) (A) (A) (A) (A) (A) (A) (A)
                 (A) (A) (A) (A) (A) (A) (A) (A) (A) (A) (A) (A)
                 (A) (A) (A) (A) (A) (A) (A) (A) (A) (A) (A) (A)
                 (A) (A) (A) (A) (A) (A) (A) (A) (A) (A) (A) (A)
                 (A) (A) (A) (A) (A) (A) (A) (A) (A) (A) (A) (A)
                 (A) (A) (A) (A) (A) (A) (A) (A) (A) (A) (A) (A)
                 (A) (A) (A) (A) (A) (A) (A) (A) (A) (A) (A) (A)
                 (A) (A) (A) (A) (A) (A) (A) (A) (A) (A) (A) (A)
                 (A) (A) (A) (A) (A) (A) (A) (A) (A) (A) (A) (A)
                 (A) (A) (A) (A) (A) (A) (A) (A) (A) (A) (A) (A)
                 (A) (A) (A) (A)
 The electronic state is 1-A.
 Alpha  occ. eigenvalues --  -19.66295 -19.59979 -10.66850 -10.56395 -10.55156
 Alpha  occ. eigenvalues --  -10.55003 -10.54948 -10.54253 -10.54174 -10.54162
 Alpha  occ. eigenvalues --   -1.23748  -1.12336  -1.01337  -0.90722  -0.88590
 Alpha  occ. eigenvalues --   -0.79650  -0.76496  -0.69701  -0.67818  -0.62045
 Alpha  occ. eigenvalues --   -0.58272  -0.56188  -0.54906  -0.54510  -0.51110
 Alpha  occ. eigenvalues --   -0.49269  -0.48695  -0.48445  -0.45531  -0.44724
 Alpha  occ. eigenvalues --   -0.41008  -0.40668  -0.39247  -0.35084  -0.33175
 Alpha  occ. eigenvalues --   -0.32249
 Alpha virt. eigenvalues --   -0.03119  -0.00812   0.00038   0.00593   0.01235
 Alpha virt. eigenvalues --    0.01820   0.02424   0.02474   0.03128   0.04619
 Alpha virt. eigenvalues --    0.04654   0.05059   0.05311   0.06536   0.07435
 Alpha virt. eigenvalues --    0.07694   0.07706   0.08195   0.08255   0.08579
 Alpha virt. eigenvalues --    0.09170   0.09497   0.09891   0.10154   0.10685
 Alpha virt. eigenvalues --    0.10709   0.11134   0.11335   0.12610   0.12818
 Alpha virt. eigenvalues --    0.13056   0.13366   0.14369   0.14937   0.14976
 Alpha virt. eigenvalues --    0.15335   0.16335   0.17090   0.17383   0.18896
 Alpha virt. eigenvalues --    0.19451   0.19663   0.19999   0.20464   0.20719
 Alpha virt. eigenvalues --    0.20860   0.21239   0.21792   0.22444   0.23055
 Alpha virt. eigenvalues --    0.23704   0.23848   0.24054   0.24777   0.25739
 Alpha virt. eigenvalues --    0.26105   0.26490   0.26798   0.27305   0.27812
 Alpha virt. eigenvalues --    0.27951   0.28809   0.30077   0.30438   0.31535
 Alpha virt. eigenvalues --    0.31618   0.31888   0.32051   0.32766   0.33152
 Alpha virt. eigenvalues --    0.33251   0.33862   0.33869   0.34759   0.34829
 Alpha virt. eigenvalues --    0.35212   0.35939   0.36276   0.36423   0.36884
 Alpha virt. eigenvalues --    0.37233   0.37398   0.37662   0.38237   0.38713
 Alpha virt. eigenvalues --    0.39568   0.39749   0.40124   0.40361   0.40874
 Alpha virt. eigenvalues --    0.41570   0.41985   0.42590   0.42663   0.43602
 Alpha virt. eigenvalues --    0.43877   0.44305   0.44872   0.44980   0.45565
 Alpha virt. eigenvalues --    0.46008   0.46340   0.46858   0.47752   0.48233
 Alpha virt. eigenvalues --    0.49340   0.50546   0.51503   0.51749   0.52432
 Alpha virt. eigenvalues --    0.53143   0.53769   0.55234   0.55560   0.57335
 Alpha virt. eigenvalues --    0.57521   0.57946   0.58081   0.58735   0.59877
 Alpha virt. eigenvalues --    0.59968   0.60210   0.60889   0.61643   0.63892
 Alpha virt. eigenvalues --    0.64393   0.64408   0.66386   0.66556   0.66977
 Alpha virt. eigenvalues --    0.67023   0.68185   0.69643   0.69814   0.71242
 Alpha virt. eigenvalues --    0.71468   0.71666   0.72234   0.72360   0.73000
 Alpha virt. eigenvalues --    0.73562   0.73768   0.74453   0.75363   0.75843
 Alpha virt. eigenvalues --    0.75887   0.76169   0.77417   0.77682   0.78473
 Alpha virt. eigenvalues --    0.78846   0.79307   0.80230   0.80754   0.81300
 Alpha virt. eigenvalues --    0.81618   0.82119   0.82513   0.83477   0.83671
 Alpha virt. eigenvalues --    0.84324   0.85347   0.85446   0.86299   0.87111
 Alpha virt. eigenvalues --    0.87442   0.87826   0.88166   0.89137   0.89763
 Alpha virt. eigenvalues --    0.90084   0.90783   0.90811   0.91497   0.92501
 Alpha virt. eigenvalues --    0.93716   0.94061   0.94101   0.94630   0.94993
 Alpha virt. eigenvalues --    0.95781   0.96929   0.97175   0.97242   0.97723
 Alpha virt. eigenvalues --    0.97981   0.99325   0.99414   1.00859   1.01091
 Alpha virt. eigenvalues --    1.01095   1.02095   1.02421   1.03878   1.04918
 Alpha virt. eigenvalues --    1.05014   1.05662   1.06083   1.06155   1.06833
 Alpha virt. eigenvalues --    1.07236   1.08867   1.09276   1.10800   1.11091
 Alpha virt. eigenvalues --    1.11944   1.13200   1.13335   1.14216   1.14243
 Alpha virt. eigenvalues --    1.15489   1.15553   1.16925   1.16945   1.18060
 Alpha virt. eigenvalues --    1.19045   1.20118   1.21595   1.22871   1.23241
 Alpha virt. eigenvalues --    1.23620   1.24006   1.25673   1.26210   1.27312
 Alpha virt. eigenvalues --    1.27836   1.28651   1.28965   1.29230   1.30106
 Alpha virt. eigenvalues --    1.32217   1.32564   1.35506   1.35862   1.36554
 Alpha virt. eigenvalues --    1.36761   1.38116   1.38356   1.39751   1.39829
 Alpha virt. eigenvalues --    1.40845   1.42512   1.42582   1.44123   1.44795
 Alpha virt. eigenvalues --    1.44821   1.47025   1.47603   1.47996   1.49020
 Alpha virt. eigenvalues --    1.50157   1.51549   1.51907   1.52295   1.53238
 Alpha virt. eigenvalues --    1.53429   1.54491   1.55074   1.56938   1.57910
 Alpha virt. eigenvalues --    1.57932   1.58561   1.62056   1.62399   1.62984
 Alpha virt. eigenvalues --    1.64002   1.65188   1.65255   1.66078   1.66354
 Alpha virt. eigenvalues --    1.67047   1.67391   1.68622   1.69538   1.70158
 Alpha virt. eigenvalues --    1.71045   1.71854   1.72535   1.72594   1.74758
 Alpha virt. eigenvalues --    1.75553   1.77562   1.78601   1.78912   1.80751
 Alpha virt. eigenvalues --    1.81266   1.81446   1.82832   1.84364   1.85851
 Alpha virt. eigenvalues --    1.87203   1.87852   1.88214   1.90047   1.90523
 Alpha virt. eigenvalues --    1.90914   1.91945   1.92710   1.94046   1.94330
 Alpha virt. eigenvalues --    1.95968   1.96587   1.97780   1.98977   1.99261
 Alpha virt. eigenvalues --    1.99604   2.00857   2.01442   2.02698   2.04128
 Alpha virt. eigenvalues --    2.04324   2.05947   2.06407   2.08459   2.08897
 Alpha virt. eigenvalues --    2.11700   2.11761   2.13178   2.13384   2.13842
 Alpha virt. eigenvalues --    2.14290   2.16381   2.18391   2.19790   2.21338
 Alpha virt. eigenvalues --    2.23881   2.25718   2.26705   2.28749   2.29048
 Alpha virt. eigenvalues --    2.30277   2.31850   2.33055   2.34046   2.34053
 Alpha virt. eigenvalues --    2.36848   2.38394   2.39330   2.42448   2.42455
 Alpha virt. eigenvalues --    2.43255   2.44626   2.46789   2.48563   2.51289
 Alpha virt. eigenvalues --    2.52263   2.53011   2.53506   2.57339   2.58403
 Alpha virt. eigenvalues --    2.59168   2.60733   2.62246   2.67015   2.68022
 Alpha virt. eigenvalues --    2.69855   2.70781   2.72884   2.73521   2.78208
 Alpha virt. eigenvalues --    2.79306   2.82518   2.85129   2.86276   2.88264
 Alpha virt. eigenvalues --    2.90259   2.90922   2.93493   2.96680   2.97644
 Alpha virt. eigenvalues --    2.99574   3.01405   3.02547   3.02959   3.05753
 Alpha virt. eigenvalues --    3.06553   3.07383   3.09112   3.12496   3.13141
 Alpha virt. eigenvalues --    3.14122   3.14804   3.14880   3.16779   3.16936
 Alpha virt. eigenvalues --    3.18589   3.19004   3.20201   3.20792   3.21382
 Alpha virt. eigenvalues --    3.23796   3.26834   3.26863   3.27260   3.28138
 Alpha virt. eigenvalues --    3.28610   3.30576   3.32753   3.33477   3.35251
 Alpha virt. eigenvalues --    3.35804   3.36910   3.38654   3.39298   3.41016
 Alpha virt. eigenvalues --    3.42538   3.42848   3.43018   3.46436   3.46830
 Alpha virt. eigenvalues --    3.48410   3.49074   3.50745   3.52076   3.52317
 Alpha virt. eigenvalues --    3.53521   3.55068   3.55237   3.56585   3.56673
 Alpha virt. eigenvalues --    3.58079   3.59321   3.60377   3.61704   3.61831
 Alpha virt. eigenvalues --    3.62162   3.63315   3.65982   3.66411   3.67006
 Alpha virt. eigenvalues --    3.67346   3.68315   3.68883   3.70362   3.74837
 Alpha virt. eigenvalues --    3.76462   3.77912   3.78799   3.78931   3.79693
 Alpha virt. eigenvalues --    3.80627   3.83819   3.84317   3.84704   3.85570
 Alpha virt. eigenvalues --    3.86402   3.88566   3.89270   3.89603   3.91233
 Alpha virt. eigenvalues --    3.92140   3.92592   3.94373   3.94715   3.96304
 Alpha virt. eigenvalues --    3.97050   3.98983   3.99509   4.01726   4.02026
 Alpha virt. eigenvalues --    4.02952   4.04631   4.05272   4.05350   4.06746
 Alpha virt. eigenvalues --    4.07613   4.08385   4.09792   4.11589   4.13659
 Alpha virt. eigenvalues --    4.14286   4.17517   4.18555   4.18837   4.21639
 Alpha virt. eigenvalues --    4.23033   4.23577   4.25291   4.26250   4.27710
 Alpha virt. eigenvalues --    4.28786   4.30153   4.33178   4.35559   4.36133
 Alpha virt. eigenvalues --    4.37422   4.38970   4.40239   4.41536   4.42412
 Alpha virt. eigenvalues --    4.44794   4.46419   4.46749   4.47091   4.52723
 Alpha virt. eigenvalues --    4.52770   4.54448   4.57807   4.61135   4.61564
 Alpha virt. eigenvalues --    4.63626   4.64414   4.64869   4.65856   4.65891
 Alpha virt. eigenvalues --    4.68828   4.71055   4.71451   4.73156   4.74323
 Alpha virt. eigenvalues --    4.76148   4.76618   4.77999   4.78839   4.79164
 Alpha virt. eigenvalues --    4.81620   4.84785   4.85484   4.87292   4.87646
 Alpha virt. eigenvalues --    4.89641   4.91344   4.94970   4.97816   4.98566
 Alpha virt. eigenvalues --    5.01032   5.02477   5.03158   5.04190   5.07187
 Alpha virt. eigenvalues --    5.07645   5.10673   5.11020   5.12545   5.18191
 Alpha virt. eigenvalues --    5.18931   5.23169   5.29191   5.30414   5.34703
 Alpha virt. eigenvalues --    5.35487   5.38372   5.42479   5.42591   5.46721
 Alpha virt. eigenvalues --    5.49726   5.52558   5.63286   5.68461   5.70528
 Alpha virt. eigenvalues --    5.72056   5.76090   5.78348   5.81614   5.84919
 Alpha virt. eigenvalues --    5.89075   5.96111   6.01281   6.06159   6.09405
 Alpha virt. eigenvalues --    6.14426   6.26142   6.26846   6.27618   6.27859
 Alpha virt. eigenvalues --    6.33042   6.42262   6.42750   6.45054   6.47432
 Alpha virt. eigenvalues --    6.49227   6.55120   6.57343   6.62924   6.65035
 Alpha virt. eigenvalues --    6.73525   6.73620   6.81005   6.81793   6.84650
 Alpha virt. eigenvalues --    6.89597   6.90024   6.93712   7.03533   7.11291
 Alpha virt. eigenvalues --    7.18473   7.18869   7.21290   7.33780   7.40932
 Alpha virt. eigenvalues --    7.55618   7.72659   7.93386   8.10352  15.60497
 Alpha virt. eigenvalues --   15.72200  17.03780  17.54396  18.11824  18.82109
 Alpha virt. eigenvalues --   19.22559  20.05950  20.55789  20.84883
          Condensed to atoms (all electrons):
               1          2          3          4          5          6
     1  C    8.234470  -0.016203  -0.014301  -0.419682   0.195638  -0.660831
     2  C   -0.016203   6.554443   0.006290  -0.007301  -0.398742   0.021304
     3  C   -0.014301   0.006290   6.407692  -0.204782   0.039754  -0.226424
     4  C   -0.419682  -0.007301  -0.204782   7.869553  -0.265162  -0.225176
     5  C    0.195638  -0.398742   0.039754  -0.265162   6.891465  -0.608989
     6  C   -0.660831   0.021304  -0.226424  -0.225176  -0.608989   7.046435
     7  C   -0.776941   0.198069   0.003320   0.303635  -0.683304  -0.346854
     8  O    0.090078  -0.044207   0.004993  -0.026744   0.132154  -0.174063
     9  O   -0.002673  -0.009267   0.006930  -0.028286   0.002833  -0.152881
    10  C    0.181746  -0.024493   0.079369  -0.585928  -0.005867  -0.204525
    11  H    0.158264  -0.261868   0.053374   0.003414  -0.053587  -0.071002
    12  H   -0.179049   0.527727  -0.217373   0.049731   0.006901  -0.051103
    13  H    0.054233  -0.237012   0.562470  -0.250352   0.049544  -0.032115
    14  H   -0.021208   0.031391  -0.277547   0.508015  -0.210074   0.023625
    15  H   -0.011123   0.002826  -0.001679   0.005489  -0.023856   0.028790
    16  H    0.004333   0.004940  -0.002214  -0.107190  -0.036847   0.044775
    17  H    0.011442  -0.007820   0.007982   0.008121  -0.090179  -0.055873
    18  H    0.011432  -0.007810   0.007995   0.008106  -0.090169  -0.055856
               7          8          9         10         11         12
     1  C   -0.776941   0.090078  -0.002673   0.181746   0.158264  -0.179049
     2  C    0.198069  -0.044207  -0.009267  -0.024493  -0.261868   0.527727
     3  C    0.003320   0.004993   0.006930   0.079369   0.053374  -0.217373
     4  C    0.303635  -0.026744  -0.028286  -0.585928   0.003414   0.049731
     5  C   -0.683304   0.132154   0.002833  -0.005867  -0.053587   0.006901
     6  C   -0.346854  -0.174063  -0.152881  -0.204525  -0.071002  -0.051103
     7  C    7.478832  -0.168065   0.126767  -0.298794   0.181105   0.003918
     8  O   -0.168065   9.451685  -0.184166   0.021639  -0.052966  -0.003273
     9  O    0.126767  -0.184166   8.599054   0.013562   0.003356  -0.000808
    10  C   -0.298794   0.021639   0.013562   6.630881  -0.010775   0.003600
    11  H    0.181105  -0.052966   0.003356  -0.010775   0.823058  -0.052214
    12  H    0.003918  -0.003273  -0.000808   0.003600  -0.052214   0.717291
    13  H   -0.011742   0.000566   0.000308   0.007518  -0.006973   0.002948
    14  H    0.023988  -0.000685   0.000909  -0.056371   0.004549  -0.008511
    15  H    0.055185  -0.089801   0.166835  -0.016782   0.000938   0.000249
    16  H    0.015309  -0.000438  -0.001600   0.513499  -0.000928   0.000613
    17  H   -0.034670   0.004818  -0.018539   0.402246  -0.000368  -0.000152
    18  H   -0.034661   0.004818  -0.018529   0.402223  -0.000369  -0.000152
              13         14         15         16         17         18
     1  C    0.054233  -0.021208  -0.011123   0.004333   0.011442   0.011432
     2  C   -0.237012   0.031391   0.002826   0.004940  -0.007820  -0.007810
     3  C    0.562470  -0.277547  -0.001679  -0.002214   0.007982   0.007995
     4  C   -0.250352   0.508015   0.005489  -0.107190   0.008121   0.008106
     5  C    0.049544  -0.210074  -0.023856  -0.036847  -0.090179  -0.090169
     6  C   -0.032115   0.023625   0.028790   0.044775  -0.055873  -0.055856
     7  C   -0.011742   0.023988   0.055185   0.015309  -0.034670  -0.034661
     8  O    0.000566  -0.000685  -0.089801  -0.000438   0.004818   0.004818
     9  O    0.000308   0.000909   0.166835  -0.001600  -0.018539  -0.018529
    10  C    0.007518  -0.056371  -0.016782   0.513499   0.402246   0.402223
    11  H   -0.006973   0.004549   0.000938  -0.000928  -0.000368  -0.000369
    12  H    0.002948  -0.008511   0.000249   0.000613  -0.000152  -0.000152
    13  H    0.676486  -0.042466  -0.000134   0.001519  -0.000051  -0.000049
    14  H   -0.042466   0.907691   0.000256  -0.056578   0.003823   0.003826
    15  H   -0.000134   0.000256   0.607088   0.000384  -0.003252  -0.003255
    16  H    0.001519  -0.056578   0.000384   0.798810  -0.123210  -0.123212
    17  H   -0.000051   0.003823  -0.003252  -0.123210   0.593301   0.037995
    18  H   -0.000049   0.003826  -0.003255  -0.123212   0.037995   0.593310
 Mulliken charges:
               1
     1  C   -0.839625
     2  C   -0.332267
     3  C   -0.235848
     4  C   -0.635460
     5  C    1.148487
     6  C    1.700766
     7  C   -0.035098
     8  O   -0.966341
     9  O   -0.503804
    10  C   -1.052748
    11  H    0.282993
    12  H    0.199657
    13  H    0.225300
    14  H    0.165366
    15  H    0.281844
    16  H    0.068034
    17  H    0.264386
    18  H    0.264358
 Sum of Mulliken charges =   0.00000
 Mulliken charges with hydrogens summed into heavy atoms:
               1
     1  C   -0.556632
     2  C   -0.132610
     3  C   -0.010548
     4  C   -0.470094
     5  C    1.148487
     6  C    1.700766
     7  C   -0.035098
     8  O   -0.966341
     9  O   -0.221960
    10  C   -0.455971
 Electronic spatial extent (au):  <R**2>=           1347.2430
 Charge=              0.0000 electrons
 Dipole moment (field-independent basis, Debye):
    X=             -1.7782    Y=              1.7476    Z=             -0.0001  Tot=              2.4932
 Quadrupole moment (field-independent basis, Debye-Ang):
   XX=            -51.4434   YY=            -58.7800   ZZ=            -60.0976
   XY=              4.8247   XZ=             -0.0003   YZ=             -0.0004
 Traceless Quadrupole moment (field-independent basis, Debye-Ang):
   XX=              5.3303   YY=             -2.0063   ZZ=             -3.3239
   XY=              4.8247   XZ=             -0.0003   YZ=             -0.0004
 Octapole moment (field-independent basis, Debye-Ang**2):
  XXX=             22.9908  YYY=              3.2004  ZZZ=              0.0000  XYY=            -13.2956
  XXY=              7.7536  XXZ=             -0.0020  XZZ=             11.5172  YZZ=              0.4715
  YYZ=              0.0001  XYZ=              0.0002
 Hexadecapole moment (field-independent basis, Debye-Ang**3):
 XXXX=           -866.0384 YYYY=           -629.5403 ZZZZ=            -70.4919 XXXY=             24.7785
 XXXZ=             -0.0054 YYYX=             17.7903 YYYZ=             -0.0025 ZZZX=             -0.0003
 ZZZY=              0.0003 XXYY=           -301.5274 XXZZ=           -198.3725 YYZZ=           -123.8814
 XXYZ=             -0.0019 YYXZ=              0.0007 ZZXY=             -0.9832
 N-N= 5.100584891094D+02 E-N=-2.093870451592D+03  KE= 4.585655162640D+02
 ******************************Gaussian NBO Version 3.1******************************
             N A T U R A L   A T O M I C   O R B I T A L   A N D
          N A T U R A L   B O N D   O R B I T A L   A N A L Y S I S
 ******************************Gaussian NBO Version 3.1******************************
       /RESON  / : Allow strongly delocalized NBO set

 Analyzing the SCF density

 Job title: o-Me                                                            

 Storage needed:   1246904 in NPA,   1661246 in NBO (********** available)
 GSVD:  LWork=       38032 too small for GESVD, short by      711488 words or      711488 for optimal perf.


 NATURAL POPULATIONS:  Natural atomic orbital occupancies 
                                                          
   NAO  Atom  No  lang   Type(AO)    Occupancy      Energy
 ----------------------------------------------------------
     1    C    1  S      Cor( 1S)     1.99910     -10.38099
     2    C    1  S      Val( 2S)     0.94031      -0.17528
     3    C    1  S      Ryd( 4S)     0.00146       1.92958
     4    C    1  S      Ryd( 5S)     0.00010       2.86077
     5    C    1  S      Ryd( 3S)     0.00002       1.81170
     6    C    1  px     Val( 2p)     1.07127      -0.05899
     7    C    1  px     Ryd( 4p)     0.00386       1.95868
     8    C    1  px     Ryd( 5p)     0.00006       2.21001
     9    C    1  px     Ryd( 3p)     0.00009       1.39952
    10    C    1  py     Val( 2p)     1.15059      -0.06643
    11    C    1  py     Ryd( 4p)     0.00490       1.81857
    12    C    1  py     Ryd( 5p)     0.00005       2.13028
    13    C    1  py     Ryd( 3p)     0.00005       1.58414
    14    C    1  pz     Val( 2p)     0.92883      -0.11537
    15    C    1  pz     Ryd( 4p)     0.00071       1.04231
    16    C    1  pz     Ryd( 5p)     0.00006       1.32728
    17    C    1  pz     Ryd( 3p)     0.00001       0.94604
    18    C    1  dxy    Ryd( 3d)     0.00159       3.07737
    19    C    1  dxy    Ryd( 5d)     0.00013       3.81996
    20    C    1  dxy    Ryd( 4d)     0.00008       3.31913
    21    C    1  dxz    Ryd( 3d)     0.00046       1.50862
    22    C    1  dxz    Ryd( 5d)     0.00003       2.98248
    23    C    1  dxz    Ryd( 4d)     0.00002       2.10758
    24    C    1  dyz    Ryd( 3d)     0.00027       1.43999
    25    C    1  dyz    Ryd( 5d)     0.00005       3.07082
    26    C    1  dyz    Ryd( 4d)     0.00004       1.82513
    27    C    1  dx2y2  Ryd( 3d)     0.00211       3.11795
    28    C    1  dx2y2  Ryd( 5d)     0.00021       3.87525
    29    C    1  dx2y2  Ryd( 4d)     0.00008       3.62061
    30    C    1  dz2    Ryd( 3d)     0.00090       1.81249
    31    C    1  dz2    Ryd( 4d)     0.00008       4.04012
    32    C    1  dz2    Ryd( 5d)     0.00007       4.31946
    33    C    1  f(0)   Ryd( 4f)     0.00010       1.51525
    34    C    1  f(0)   Ryd( 5f)     0.00009       3.40033
    35    C    1  f(C1)  Ryd( 4f)     0.00041       2.03464
    36    C    1  f(C1)  Ryd( 5f)     0.00023       3.69090
    37    C    1  f(S1)  Ryd( 4f)     0.00051       1.81653
    38    C    1  f(S1)  Ryd( 5f)     0.00011       3.58143
    39    C    1  f(C2)  Ryd( 4f)     0.00017       1.63651
    40    C    1  f(C2)  Ryd( 5f)     0.00003       3.44704
    41    C    1  f(S2)  Ryd( 4f)     0.00018       1.49644
    42    C    1  f(S2)  Ryd( 5f)     0.00003       3.45557
    43    C    1  f(C3)  Ryd( 4f)     0.00047       2.74884
    44    C    1  f(C3)  Ryd( 5f)     0.00013       4.08143
    45    C    1  f(S3)  Ryd( 4f)     0.00101       2.11491
    46    C    1  f(S3)  Ryd( 5f)     0.00019       4.22936
 
    47    C    2  S      Cor( 1S)     1.99910     -10.37273
    48    C    2  S      Val( 2S)     0.94487      -0.18558
    49    C    2  S      Ryd( 4S)     0.00135       1.89853
    50    C    2  S      Ryd( 5S)     0.00006       3.01488
    51    C    2  S      Ryd( 3S)     0.00002       1.79174
    52    C    2  px     Val( 2p)     1.10434      -0.07167
    53    C    2  px     Ryd( 5p)     0.00436       1.73133
    54    C    2  px     Ryd( 3p)     0.00004       1.29570
    55    C    2  px     Ryd( 4p)     0.00002       1.42182
    56    C    2  py     Val( 2p)     1.14554      -0.07919
    57    C    2  py     Ryd( 5p)     0.00441       1.74171
    58    C    2  py     Ryd( 4p)     0.00003       1.55918
    59    C    2  py     Ryd( 3p)     0.00002       1.54214
    60    C    2  pz     Val( 2p)     1.00878      -0.12222
    61    C    2  pz     Ryd( 3p)     0.00081       1.03897
    62    C    2  pz     Ryd( 5p)     0.00000       1.09820
    63    C    2  pz     Ryd( 4p)     0.00002       1.06230
    64    C    2  dxy    Ryd( 3d)     0.00191       2.44342
    65    C    2  dxy    Ryd( 5d)     0.00022       3.51730
    66    C    2  dxy    Ryd( 4d)     0.00006       2.87661
    67    C    2  dxz    Ryd( 3d)     0.00033       1.49333
    68    C    2  dxz    Ryd( 5d)     0.00001       2.85710
    69    C    2  dxz    Ryd( 4d)     0.00002       1.68533
    70    C    2  dyz    Ryd( 3d)     0.00031       1.49155
    71    C    2  dyz    Ryd( 5d)     0.00004       2.85957
    72    C    2  dyz    Ryd( 4d)     0.00002       1.71999
    73    C    2  dx2y2  Ryd( 4d)     0.00208       3.23599
    74    C    2  dx2y2  Ryd( 5d)     0.00019       3.74171
    75    C    2  dx2y2  Ryd( 3d)     0.00004       2.11091
    76    C    2  dz2    Ryd( 3d)     0.00106       1.78594
    77    C    2  dz2    Ryd( 5d)     0.00008       4.10506
    78    C    2  dz2    Ryd( 4d)     0.00009       3.31786
    79    C    2  f(0)   Ryd( 5f)     0.00012       3.49357
    80    C    2  f(0)   Ryd( 4f)     0.00001       2.17938
    81    C    2  f(C1)  Ryd( 5f)     0.00021       3.76241
    82    C    2  f(C1)  Ryd( 4f)     0.00002       2.66084
    83    C    2  f(S1)  Ryd( 5f)     0.00022       3.72310
    84    C    2  f(S1)  Ryd( 4f)     0.00002       2.93770
    85    C    2  f(C2)  Ryd( 5f)     0.00001       3.59026
    86    C    2  f(C2)  Ryd( 4f)     0.00000       2.28932
    87    C    2  f(S2)  Ryd( 5f)     0.00001       3.67009
    88    C    2  f(S2)  Ryd( 4f)     0.00001       2.31610
    89    C    2  f(C3)  Ryd( 4f)     0.00014       4.23723
    90    C    2  f(C3)  Ryd( 5f)     0.00005       5.51127
    91    C    2  f(S3)  Ryd( 5f)     0.00009       4.36529
    92    C    2  f(S3)  Ryd( 4f)     0.00011       4.00747
 
    93    C    3  S      Cor( 1S)     1.99908     -10.37869
    94    C    3  S      Val( 2S)     0.94713      -0.19026
    95    C    3  S      Ryd( 4S)     0.00126       1.96744
    96    C    3  S      Ryd( 5S)     0.00004       2.88700
    97    C    3  S      Ryd( 3S)     0.00002       1.90339
    98    C    3  px     Val( 2p)     1.17966      -0.08476
    99    C    3  px     Ryd( 4p)     0.00562       1.69387
   100    C    3  px     Ryd( 3p)     0.00002       1.65448
   101    C    3  px     Ryd( 5p)     0.00003       1.69695
   102    C    3  py     Val( 2p)     1.06713      -0.06454
   103    C    3  py     Ryd( 5p)     0.00390       1.73837
   104    C    3  py     Ryd( 3p)     0.00004       1.17675
   105    C    3  py     Ryd( 4p)     0.00001       1.36081
   106    C    3  pz     Val( 2p)     0.94622      -0.11996
   107    C    3  pz     Ryd( 3p)     0.00060       1.02133
   108    C    3  pz     Ryd( 4p)     0.00001       1.08478
   109    C    3  pz     Ryd( 5p)     0.00001       1.11552
   110    C    3  dxy    Ryd( 4d)     0.00209       3.50259
   111    C    3  dxy    Ryd( 5d)     0.00024       3.77056
   112    C    3  dxy    Ryd( 3d)     0.00004       1.87486
   113    C    3  dxz    Ryd( 3d)     0.00025       1.47729
   114    C    3  dxz    Ryd( 5d)     0.00005       2.92538
   115    C    3  dxz    Ryd( 4d)     0.00002       1.47902
   116    C    3  dyz    Ryd( 3d)     0.00059       1.52023
   117    C    3  dyz    Ryd( 5d)     0.00001       2.84862
   118    C    3  dyz    Ryd( 4d)     0.00001       1.83155
   119    C    3  dx2y2  Ryd( 3d)     0.00193       2.34713
   120    C    3  dx2y2  Ryd( 5d)     0.00019       3.60226
   121    C    3  dx2y2  Ryd( 4d)     0.00005       2.92023
   122    C    3  dz2    Ryd( 3d)     0.00099       1.85960
   123    C    3  dz2    Ryd( 5d)     0.00004       4.10274
   124    C    3  dz2    Ryd( 4d)     0.00010       3.32556
   125    C    3  f(0)   Ryd( 5f)     0.00010       3.49157
   126    C    3  f(0)   Ryd( 4f)     0.00001       2.18526
   127    C    3  f(C1)  Ryd( 5f)     0.00015       3.70464
   128    C    3  f(C1)  Ryd( 4f)     0.00003       2.71983
   129    C    3  f(S1)  Ryd( 5f)     0.00026       3.77469
   130    C    3  f(S1)  Ryd( 4f)     0.00001       2.90412
   131    C    3  f(C2)  Ryd( 5f)     0.00001       3.68590
   132    C    3  f(C2)  Ryd( 4f)     0.00001       2.23796
   133    C    3  f(S2)  Ryd( 5f)     0.00001       3.58364
   134    C    3  f(S2)  Ryd( 4f)     0.00001       2.37063
   135    C    3  f(C3)  Ryd( 4f)     0.00013       4.29238
   136    C    3  f(C3)  Ryd( 5f)     0.00003       5.49344
   137    C    3  f(S3)  Ryd( 5f)     0.00009       4.36397
   138    C    3  f(S3)  Ryd( 4f)     0.00011       4.01429
 
   139    C    4  S      Cor( 1S)     1.99905     -10.37146
   140    C    4  S      Val( 2S)     0.93737      -0.17445
   141    C    4  S      Ryd( 4S)     0.00148       2.01303
   142    C    4  S      Ryd( 5S)     0.00009       2.62696
   143    C    4  S      Ryd( 3S)     0.00002       2.00202
   144    C    4  px     Val( 2p)     1.09197      -0.06939
   145    C    4  px     Ryd( 5p)     0.00357       1.82824
   146    C    4  px     Ryd( 4p)     0.00007       1.73746
   147    C    4  px     Ryd( 3p)     0.00002       1.41765
   148    C    4  py     Val( 2p)     1.15473      -0.08034
   149    C    4  py     Ryd( 4p)     0.00520       1.84069
   150    C    4  py     Ryd( 5p)     0.00008       2.24328
   151    C    4  py     Ryd( 3p)     0.00006       1.54549
   152    C    4  pz     Val( 2p)     1.01254      -0.12223
   153    C    4  pz     Ryd( 4p)     0.00085       0.98728
   154    C    4  pz     Ryd( 5p)     0.00003       1.35020
   155    C    4  pz     Ryd( 3p)     0.00005       0.94523
   156    C    4  dxy    Ryd( 3d)     0.00184       2.72055
   157    C    4  dxy    Ryd( 5d)     0.00014       3.94752
   158    C    4  dxy    Ryd( 4d)     0.00009       3.33414
   159    C    4  dxz    Ryd( 3d)     0.00021       1.45560
   160    C    4  dxz    Ryd( 5d)     0.00005       3.17232
   161    C    4  dxz    Ryd( 4d)     0.00002       1.63344
   162    C    4  dyz    Ryd( 3d)     0.00029       1.47456
   163    C    4  dyz    Ryd( 5d)     0.00006       3.22892
   164    C    4  dyz    Ryd( 4d)     0.00003       1.66125
   165    C    4  dx2y2  Ryd( 4d)     0.00200       3.18184
   166    C    4  dx2y2  Ryd( 5d)     0.00015       4.26205
   167    C    4  dx2y2  Ryd( 3d)     0.00006       2.41572
   168    C    4  dz2    Ryd( 3d)     0.00092       1.70003
   169    C    4  dz2    Ryd( 4d)     0.00008       4.07632
   170    C    4  dz2    Ryd( 5d)     0.00006       4.33667
   171    C    4  f(0)   Ryd( 4f)     0.00018       1.65119
   172    C    4  f(0)   Ryd( 5f)     0.00007       3.25104
   173    C    4  f(C1)  Ryd( 4f)     0.00052       2.06549
   174    C    4  f(C1)  Ryd( 5f)     0.00015       3.47639
   175    C    4  f(S1)  Ryd( 4f)     0.00053       2.04646
   176    C    4  f(S1)  Ryd( 5f)     0.00009       3.49105
   177    C    4  f(C2)  Ryd( 4f)     0.00012       1.64399
   178    C    4  f(C2)  Ryd( 5f)     0.00004       3.28832
   179    C    4  f(S2)  Ryd( 4f)     0.00014       1.81540
   180    C    4  f(S2)  Ryd( 5f)     0.00007       3.24086
   181    C    4  f(C3)  Ryd( 4f)     0.00048       2.94155
   182    C    4  f(C3)  Ryd( 5f)     0.00012       3.89904
   183    C    4  f(S3)  Ryd( 4f)     0.00075       2.23722
   184    C    4  f(S3)  Ryd( 5f)     0.00027       3.98594
 
   185    C    5  S      Cor( 1S)     1.99901     -10.39684
   186    C    5  S      Val( 2S)     0.88001      -0.14618
   187    C    5  S      Ryd( 3S)     0.00087       1.74930
   188    C    5  S      Ryd( 4S)     0.00010       2.74520
   189    C    5  S      Ryd( 5S)     0.00002       3.15802
   190    C    5  px     Val( 2p)     1.06820      -0.06152
   191    C    5  px     Ryd( 4p)     0.00368       1.98633
   192    C    5  px     Ryd( 5p)     0.00005       3.46167
   193    C    5  px     Ryd( 3p)     0.00004       0.83526
   194    C    5  py     Val( 2p)     1.04486      -0.05607
   195    C    5  py     Ryd( 4p)     0.00476       2.12885
   196    C    5  py     Ryd( 5p)     0.00007       3.23705
   197    C    5  py     Ryd( 3p)     0.00002       0.86328
   198    C    5  pz     Val( 2p)     0.93670      -0.11243
   199    C    5  pz     Ryd( 4p)     0.00174       0.90705
   200    C    5  pz     Ryd( 5p)     0.00010       2.15723
   201    C    5  pz     Ryd( 3p)     0.00002       0.54175
   202    C    5  dxy    Ryd( 3d)     0.00091       3.09940
   203    C    5  dxy    Ryd( 4d)     0.00020       3.66673
   204    C    5  dxy    Ryd( 5d)     0.00004       4.54118
   205    C    5  dxz    Ryd( 3d)     0.00060       1.76385
   206    C    5  dxz    Ryd( 5d)     0.00005       2.70731
   207    C    5  dxz    Ryd( 4d)     0.00001       2.53440
   208    C    5  dyz    Ryd( 3d)     0.00035       1.75326
   209    C    5  dyz    Ryd( 5d)     0.00015       2.64606
   210    C    5  dyz    Ryd( 4d)     0.00006       2.64215
   211    C    5  dx2y2  Ryd( 3d)     0.00119       3.58925
   212    C    5  dx2y2  Ryd( 4d)     0.00027       3.85298
   213    C    5  dx2y2  Ryd( 5d)     0.00006       4.79464
   214    C    5  dz2    Ryd( 3d)     0.00073       2.06503
   215    C    5  dz2    Ryd( 4d)     0.00023       3.26250
   216    C    5  dz2    Ryd( 5d)     0.00006       4.49754
   217    C    5  f(0)   Ryd( 4f)     0.00029       1.48227
   218    C    5  f(0)   Ryd( 5f)     0.00014       3.65471
   219    C    5  f(C1)  Ryd( 4f)     0.00057       1.92854
   220    C    5  f(C1)  Ryd( 5f)     0.00025       3.77831
   221    C    5  f(S1)  Ryd( 4f)     0.00049       2.09047
   222    C    5  f(S1)  Ryd( 5f)     0.00023       3.78480
   223    C    5  f(C2)  Ryd( 4f)     0.00091       1.36779
   224    C    5  f(C2)  Ryd( 5f)     0.00001       3.74306
   225    C    5  f(S2)  Ryd( 4f)     0.00044       1.27939
   226    C    5  f(S2)  Ryd( 5f)     0.00001       3.75049
   227    C    5  f(C3)  Ryd( 4f)     0.00068       3.51499
   228    C    5  f(C3)  Ryd( 5f)     0.00008       4.39330
   229    C    5  f(S3)  Ryd( 4f)     0.00321       2.17779
   230    C    5  f(S3)  Ryd( 5f)     0.00014       4.69492
 
   231    C    6  S      Cor( 1S)     1.99876     -10.37001
   232    C    6  S      Val( 2S)     0.88186      -0.10621
   233    C    6  S      Ryd( 3S)     0.00093       2.07078
   234    C    6  S      Ryd( 4S)     0.00008       2.38633
   235    C    6  S      Ryd( 5S)     0.00003       3.57210
   236    C    6  px     Val( 2p)     1.10193      -0.10598
   237    C    6  px     Ryd( 4p)     0.00580       2.59905
   238    C    6  px     Ryd( 5p)     0.00005       3.00535
   239    C    6  px     Ryd( 3p)     0.00006       1.08329
   240    C    6  py     Val( 2p)     1.14247      -0.10302
   241    C    6  py     Ryd( 4p)     0.00470       2.27050
   242    C    6  py     Ryd( 5p)     0.00007       2.80696
   243    C    6  py     Ryd( 3p)     0.00003       0.87119
   244    C    6  pz     Val( 2p)     1.08430      -0.13321
   245    C    6  pz     Ryd( 4p)     0.00125       1.00851
   246    C    6  pz     Ryd( 5p)     0.00012       2.16373
   247    C    6  pz     Ryd( 3p)     0.00001       0.56916
   248    C    6  dxy    Ryd( 3d)     0.00058       3.06394
   249    C    6  dxy    Ryd( 4d)     0.00033       3.89418
   250    C    6  dxy    Ryd( 5d)     0.00005       5.86805
   251    C    6  dxz    Ryd( 3d)     0.00012       1.63937
   252    C    6  dxz    Ryd( 5d)     0.00012       2.97008
   253    C    6  dxz    Ryd( 4d)     0.00002       2.48254
   254    C    6  dyz    Ryd( 3d)     0.00029       1.56133
   255    C    6  dyz    Ryd( 5d)     0.00007       2.86231
   256    C    6  dyz    Ryd( 4d)     0.00003       2.64308
   257    C    6  dx2y2  Ryd( 3d)     0.00190       3.19234
   258    C    6  dx2y2  Ryd( 4d)     0.00013       3.87748
   259    C    6  dx2y2  Ryd( 5d)     0.00002       5.50452
   260    C    6  dz2    Ryd( 3d)     0.00067       1.70549
   261    C    6  dz2    Ryd( 4d)     0.00017       3.78330
   262    C    6  dz2    Ryd( 5d)     0.00003       4.34563
   263    C    6  f(0)   Ryd( 4f)     0.00035       1.65146
   264    C    6  f(0)   Ryd( 5f)     0.00031       3.51221
   265    C    6  f(C1)  Ryd( 4f)     0.00040       2.15312
   266    C    6  f(C1)  Ryd( 5f)     0.00041       3.69973
   267    C    6  f(S1)  Ryd( 4f)     0.00077       2.22325
   268    C    6  f(S1)  Ryd( 5f)     0.00031       3.79221
   269    C    6  f(C2)  Ryd( 4f)     0.00058       1.51747
   270    C    6  f(C2)  Ryd( 5f)     0.00003       3.49546
   271    C    6  f(S2)  Ryd( 4f)     0.00048       1.55105
   272    C    6  f(S2)  Ryd( 5f)     0.00003       3.50065
   273    C    6  f(C3)  Ryd( 4f)     0.00136       3.64804
   274    C    6  f(C3)  Ryd( 5f)     0.00012       4.69822
   275    C    6  f(S3)  Ryd( 4f)     0.00190       2.68100
   276    C    6  f(S3)  Ryd( 5f)     0.00027       4.50614
 
   277    C    7  S      Cor( 1S)     1.99910     -10.53077
   278    C    7  S      Val( 2S)     0.78047      -0.09654
   279    C    7  S      Ryd( 3S)     0.00415       2.01679
   280    C    7  S      Ryd( 5S)     0.00010       2.18896
   281    C    7  S      Ryd( 4S)     0.00004       2.18085
   282    C    7  px     Val( 2p)     0.90573      -0.03908
   283    C    7  px     Ryd( 5p)     0.00513       1.68100
   284    C    7  px     Ryd( 3p)     0.00026       1.41997
   285    C    7  px     Ryd( 4p)     0.00001       1.45131
   286    C    7  py     Val( 2p)     0.73357      -0.02041
   287    C    7  py     Ryd( 4p)     0.01294       1.64025
   288    C    7  py     Ryd( 3p)     0.00008       1.27070
   289    C    7  py     Ryd( 5p)     0.00004       1.80369
   290    C    7  pz     Val( 2p)     0.75608      -0.12019
   291    C    7  pz     Ryd( 5p)     0.00047       1.16215
   292    C    7  pz     Ryd( 3p)     0.00011       0.71715
   293    C    7  pz     Ryd( 4p)     0.00003       1.11302
   294    C    7  dxy    Ryd( 4d)     0.00084       3.38805
   295    C    7  dxy    Ryd( 3d)     0.00032       2.59830
   296    C    7  dxy    Ryd( 5d)     0.00006       3.81175
   297    C    7  dxz    Ryd( 4d)     0.00102       2.40647
   298    C    7  dxz    Ryd( 3d)     0.00004       1.72046
   299    C    7  dxz    Ryd( 5d)     0.00004       2.70656
   300    C    7  dyz    Ryd( 4d)     0.00142       2.52405
   301    C    7  dyz    Ryd( 3d)     0.00010       1.88549
   302    C    7  dyz    Ryd( 5d)     0.00007       2.72506
   303    C    7  dx2y2  Ryd( 4d)     0.00188       3.26891
   304    C    7  dx2y2  Ryd( 3d)     0.00021       2.26653
   305    C    7  dx2y2  Ryd( 5d)     0.00008       3.99628
   306    C    7  dz2    Ryd( 4d)     0.00032       3.25588
   307    C    7  dz2    Ryd( 3d)     0.00048       2.76150
   308    C    7  dz2    Ryd( 5d)     0.00010       3.87580
   309    C    7  f(0)   Ryd( 4f)     0.00008       1.51427
   310    C    7  f(0)   Ryd( 5f)     0.00011       3.75015
   311    C    7  f(C1)  Ryd( 4f)     0.00037       1.70486
   312    C    7  f(C1)  Ryd( 5f)     0.00016       3.89360
   313    C    7  f(S1)  Ryd( 4f)     0.00032       1.72466
   314    C    7  f(S1)  Ryd( 5f)     0.00007       3.77974
   315    C    7  f(C2)  Ryd( 4f)     0.00074       1.42830
   316    C    7  f(C2)  Ryd( 5f)     0.00000       3.65160
   317    C    7  f(S2)  Ryd( 4f)     0.00063       1.56490
   318    C    7  f(S2)  Ryd( 5f)     0.00003       3.80360
   319    C    7  f(C3)  Ryd( 4f)     0.00081       3.04167
   320    C    7  f(C3)  Ryd( 5f)     0.00008       4.82531
   321    C    7  f(S3)  Ryd( 4f)     0.00178       2.18484
   322    C    7  f(S3)  Ryd( 5f)     0.00005       4.86892
 
   323    O    8  S      Cor( 1S)     1.99979     -19.31615
   324    O    8  S      Val( 2S)     1.70632      -0.99185
   325    O    8  S      Ryd( 4S)     0.00053       3.03148
   326    O    8  S      Ryd( 3S)     0.00020       1.42080
   327    O    8  S      Ryd( 5S)     0.00003       9.97731
   328    O    8  px     Val( 2p)     1.80098      -0.33107
   329    O    8  px     Ryd( 4p)     0.00146       1.50838
   330    O    8  px     Ryd( 3p)     0.00012       1.17618
   331    O    8  px     Ryd( 5p)     0.00004       4.49941
   332    O    8  py     Val( 2p)     1.61804      -0.32831
   333    O    8  py     Ryd( 4p)     0.00122       1.78362
   334    O    8  py     Ryd( 3p)     0.00009       1.08250
   335    O    8  py     Ryd( 5p)     0.00006       4.88667
   336    O    8  pz     Val( 2p)     1.46440      -0.28242
   337    O    8  pz     Ryd( 4p)     0.00073       1.18289
   338    O    8  pz     Ryd( 3p)     0.00001       0.78483
   339    O    8  pz     Ryd( 5p)     0.00001       3.88887
   340    O    8  dxy    Ryd( 3d)     0.00696       2.14707
   341    O    8  dxy    Ryd( 4d)     0.00013       3.48588
   342    O    8  dxy    Ryd( 5d)     0.00003       6.29623
   343    O    8  dxz    Ryd( 3d)     0.00148       1.55116
   344    O    8  dxz    Ryd( 4d)     0.00002       1.95170
   345    O    8  dxz    Ryd( 5d)     0.00001       6.21082
   346    O    8  dyz    Ryd( 3d)     0.00575       1.61920
   347    O    8  dyz    Ryd( 4d)     0.00005       2.08966
   348    O    8  dyz    Ryd( 5d)     0.00003       6.08823
   349    O    8  dx2y2  Ryd( 3d)     0.00654       1.95738
   350    O    8  dx2y2  Ryd( 4d)     0.00012       3.18401
   351    O    8  dx2y2  Ryd( 5d)     0.00002       6.21677
   352    O    8  dz2    Ryd( 3d)     0.00289       1.74868
   353    O    8  dz2    Ryd( 4d)     0.00009       3.01499
   354    O    8  dz2    Ryd( 5d)     0.00001       6.29937
   355    O    8  f(0)   Ryd( 4f)     0.00012       3.31212
   356    O    8  f(0)   Ryd( 5f)     0.00000       5.44102
   357    O    8  f(C1)  Ryd( 4f)     0.00007       3.47924
   358    O    8  f(C1)  Ryd( 5f)     0.00002       5.58691
   359    O    8  f(S1)  Ryd( 4f)     0.00014       3.94786
   360    O    8  f(S1)  Ryd( 5f)     0.00000       5.82408
   361    O    8  f(C2)  Ryd( 4f)     0.00011       3.33493
   362    O    8  f(C2)  Ryd( 5f)     0.00001       5.74810
   363    O    8  f(S2)  Ryd( 4f)     0.00023       3.32540
   364    O    8  f(S2)  Ryd( 5f)     0.00001       5.62408
   365    O    8  f(C3)  Ryd( 4f)     0.00034       4.36222
   366    O    8  f(C3)  Ryd( 5f)     0.00001       6.09807
   367    O    8  f(S3)  Ryd( 4f)     0.00034       3.75717
   368    O    8  f(S3)  Ryd( 5f)     0.00003       5.88897
 
   369    O    9  S      Cor( 1S)     1.99978     -19.44932
   370    O    9  S      Val( 2S)     1.67554      -1.02753
   371    O    9  S      Ryd( 3S)     0.00029       1.85503
   372    O    9  S      Ryd( 4S)     0.00010       1.93063
   373    O    9  S      Ryd( 5S)     0.00003      10.95727
   374    O    9  px     Val( 2p)     1.43634      -0.34942
   375    O    9  px     Ryd( 4p)     0.00053       1.25632
   376    O    9  px     Ryd( 3p)     0.00013       0.78338
   377    O    9  px     Ryd( 5p)     0.00005       5.41105
   378    O    9  py     Val( 2p)     1.72649      -0.40001
   379    O    9  py     Ryd( 4p)     0.00109       1.22926
   380    O    9  py     Ryd( 3p)     0.00007       0.78097
   381    O    9  py     Ryd( 5p)     0.00008       5.07310
   382    O    9  pz     Val( 2p)     1.84438      -0.40632
   383    O    9  pz     Ryd( 4p)     0.00104       0.91660
   384    O    9  pz     Ryd( 3p)     0.00002       0.59596
   385    O    9  pz     Ryd( 5p)     0.00001       4.15692
   386    O    9  dxy    Ryd( 3d)     0.00678       2.20294
   387    O    9  dxy    Ryd( 4d)     0.00010       2.69040
   388    O    9  dxy    Ryd( 5d)     0.00003       6.98022
   389    O    9  dxz    Ryd( 3d)     0.00006       1.28547
   390    O    9  dxz    Ryd( 4d)     0.00008       1.88499
   391    O    9  dxz    Ryd( 5d)     0.00001       6.63864
   392    O    9  dyz    Ryd( 3d)     0.00473       1.41367
   393    O    9  dyz    Ryd( 4d)     0.00001       1.73328
   394    O    9  dyz    Ryd( 5d)     0.00003       6.66175
   395    O    9  dx2y2  Ryd( 3d)     0.00299       1.80124
   396    O    9  dx2y2  Ryd( 4d)     0.00007       2.10741
   397    O    9  dx2y2  Ryd( 5d)     0.00006       6.96188
   398    O    9  dz2    Ryd( 3d)     0.00276       1.62695
   399    O    9  dz2    Ryd( 4d)     0.00018       2.22319
   400    O    9  dz2    Ryd( 5d)     0.00001       6.94474
   401    O    9  f(0)   Ryd( 4f)     0.00046       2.95175
   402    O    9  f(0)   Ryd( 5f)     0.00001       5.90979
   403    O    9  f(C1)  Ryd( 4f)     0.00023       3.62242
   404    O    9  f(C1)  Ryd( 5f)     0.00001       6.23563
   405    O    9  f(S1)  Ryd( 4f)     0.00012       3.77797
   406    O    9  f(S1)  Ryd( 5f)     0.00001       6.25241
   407    O    9  f(C2)  Ryd( 4f)     0.00002       3.01561
   408    O    9  f(C2)  Ryd( 5f)     0.00000       6.23096
   409    O    9  f(S2)  Ryd( 4f)     0.00005       3.06447
   410    O    9  f(S2)  Ryd( 5f)     0.00001       5.98751
   411    O    9  f(C3)  Ryd( 4f)     0.00005       4.35143
   412    O    9  f(C3)  Ryd( 5f)     0.00003       6.52283
   413    O    9  f(S3)  Ryd( 4f)     0.00013       4.40146
   414    O    9  f(S3)  Ryd( 5f)     0.00004       6.55081
 
   415    C   10  S      Cor( 1S)     1.99947     -10.40167
   416    C   10  S      Val( 2S)     1.10238      -0.30346
   417    C   10  S      Ryd( 4S)     0.00081       1.44756
   418    C   10  S      Ryd( 5S)     0.00007       5.96616
   419    C   10  S      Ryd( 3S)     0.00001       1.26041
   420    C   10  px     Val( 2p)     1.18202      -0.11536
   421    C   10  px     Ryd( 3p)     0.00217       1.25955
   422    C   10  px     Ryd( 5p)     0.00009       1.79966
   423    C   10  px     Ryd( 4p)     0.00003       1.55058
   424    C   10  py     Val( 2p)     1.08873      -0.10042
   425    C   10  py     Ryd( 3p)     0.00094       1.25864
   426    C   10  py     Ryd( 5p)     0.00005       1.98541
   427    C   10  py     Ryd( 4p)     0.00001       1.60036
   428    C   10  pz     Val( 2p)     1.22377      -0.12356
   429    C   10  pz     Ryd( 3p)     0.00047       1.12480
   430    C   10  pz     Ryd( 5p)     0.00003       1.74757
   431    C   10  pz     Ryd( 4p)     0.00001       1.16500
   432    C   10  dxy    Ryd( 4d)     0.00193       1.92473
   433    C   10  dxy    Ryd( 5d)     0.00006       3.65821
   434    C   10  dxy    Ryd( 3d)     0.00003       1.46556
   435    C   10  dxz    Ryd( 4d)     0.00204       1.62118
   436    C   10  dxz    Ryd( 5d)     0.00001       3.58819
   437    C   10  dxz    Ryd( 3d)     0.00000       1.47141
   438    C   10  dyz    Ryd( 4d)     0.00018       1.42515
   439    C   10  dyz    Ryd( 5d)     0.00001       3.18175
   440    C   10  dyz    Ryd( 3d)     0.00001       1.16681
   441    C   10  dx2y2  Ryd( 4d)     0.00048       1.84758
   442    C   10  dx2y2  Ryd( 5d)     0.00005       3.44393
   443    C   10  dx2y2  Ryd( 3d)     0.00003       1.29067
   444    C   10  dz2    Ryd( 4d)     0.00192       1.78353
   445    C   10  dz2    Ryd( 5d)     0.00004       3.64619
   446    C   10  dz2    Ryd( 3d)     0.00003       1.61759
   447    C   10  f(0)   Ryd( 5f)     0.00000       3.91848
   448    C   10  f(0)   Ryd( 4f)     0.00002       2.08602
   449    C   10  f(C1)  Ryd( 5f)     0.00016       4.26719
   450    C   10  f(C1)  Ryd( 4f)     0.00003       3.25762
   451    C   10  f(S1)  Ryd( 5f)     0.00004       3.92535
   452    C   10  f(S1)  Ryd( 4f)     0.00003       3.67472
   453    C   10  f(C2)  Ryd( 5f)     0.00001       3.84923
   454    C   10  f(C2)  Ryd( 4f)     0.00003       2.52922
   455    C   10  f(S2)  Ryd( 5f)     0.00002       3.90935
   456    C   10  f(S2)  Ryd( 4f)     0.00001       2.11814
   457    C   10  f(C3)  Ryd( 5f)     0.00006       4.15350
   458    C   10  f(C3)  Ryd( 4f)     0.00004       3.25429
   459    C   10  f(S3)  Ryd( 5f)     0.00003       4.11418
   460    C   10  f(S3)  Ryd( 4f)     0.00004       2.61457
 
   461    H   11  S      Val( 1S)     0.75946       0.05901
   462    H   11  S      Ryd( 4S)     0.00049       2.00101
   463    H   11  S      Ryd( 2S)     0.00010       0.78357
   464    H   11  S      Ryd( 3S)     0.00004       1.78447
   465    H   11  px     Ryd( 2p)     0.00056       1.04981
   466    H   11  px     Ryd( 4p)     0.00009       4.19751
   467    H   11  px     Ryd( 3p)     0.00007       3.15412
   468    H   11  py     Ryd( 2p)     0.00074       0.93750
   469    H   11  py     Ryd( 4p)     0.00019       4.28829
   470    H   11  py     Ryd( 3p)     0.00005       4.19293
   471    H   11  pz     Ryd( 2p)     0.00009       0.66043
   472    H   11  pz     Ryd( 4p)     0.00002       3.95028
   473    H   11  pz     Ryd( 3p)     0.00003       2.09019
   474    H   11  dxy    Ryd( 3d)     0.00006       2.16376
   475    H   11  dxy    Ryd( 4d)     0.00002       4.53134
   476    H   11  dxz    Ryd( 3d)     0.00003       1.60163
   477    H   11  dxz    Ryd( 4d)     0.00000       3.72270
   478    H   11  dyz    Ryd( 3d)     0.00001       1.69743
   479    H   11  dyz    Ryd( 4d)     0.00001       3.99955
   480    H   11  dx2y2  Ryd( 3d)     0.00005       2.34019
   481    H   11  dx2y2  Ryd( 4d)     0.00003       4.56598
   482    H   11  dz2    Ryd( 3d)     0.00003       2.29136
   483    H   11  dz2    Ryd( 4d)     0.00002       4.21474
 
   484    H   12  S      Val( 1S)     0.78476       0.03898
   485    H   12  S      Ryd( 4S)     0.00034       2.04422
   486    H   12  S      Ryd( 2S)     0.00013       0.88687
   487    H   12  S      Ryd( 3S)     0.00001       1.26281
   488    H   12  px     Ryd( 2p)     0.00045       1.09840
   489    H   12  px     Ryd( 4p)     0.00007       3.86335
   490    H   12  px     Ryd( 3p)     0.00008       2.79954
   491    H   12  py     Ryd( 2p)     0.00060       1.16835
   492    H   12  py     Ryd( 4p)     0.00008       4.67563
   493    H   12  py     Ryd( 3p)     0.00006       2.91751
   494    H   12  pz     Ryd( 2p)     0.00020       0.91452
   495    H   12  pz     Ryd( 4p)     0.00010       2.89120
   496    H   12  pz     Ryd( 3p)     0.00001       2.42110
   497    H   12  dxy    Ryd( 3d)     0.00013       2.22695
   498    H   12  dxy    Ryd( 4d)     0.00003       4.33015
   499    H   12  dxz    Ryd( 3d)     0.00001       1.65821
   500    H   12  dxz    Ryd( 4d)     0.00001       3.57563
   501    H   12  dyz    Ryd( 3d)     0.00001       1.74495
   502    H   12  dyz    Ryd( 4d)     0.00000       3.77178
   503    H   12  dx2y2  Ryd( 3d)     0.00003       1.99263
   504    H   12  dx2y2  Ryd( 4d)     0.00002       4.41152
   505    H   12  dz2    Ryd( 3d)     0.00002       1.95944
   506    H   12  dz2    Ryd( 4d)     0.00002       3.75062
 
   507    H   13  S      Val( 1S)     0.78719       0.03513
   508    H   13  S      Ryd( 4S)     0.00034       2.04696
   509    H   13  S      Ryd( 2S)     0.00013       0.86316
   510    H   13  S      Ryd( 3S)     0.00001       1.16975
   511    H   13  px     Ryd( 2p)     0.00097       1.04979
   512    H   13  px     Ryd( 4p)     0.00009       5.13118
   513    H   13  px     Ryd( 3p)     0.00006       3.29301
   514    H   13  py     Ryd( 2p)     0.00028       1.05867
   515    H   13  py     Ryd( 4p)     0.00005       3.49498
   516    H   13  py     Ryd( 3p)     0.00008       2.56785
   517    H   13  pz     Ryd( 2p)     0.00012       0.85644
   518    H   13  pz     Ryd( 4p)     0.00008       3.14811
   519    H   13  pz     Ryd( 3p)     0.00001       2.24764
   520    H   13  dxy    Ryd( 3d)     0.00002       2.12074
   521    H   13  dxy    Ryd( 4d)     0.00002       4.23539
   522    H   13  dxz    Ryd( 3d)     0.00000       1.69823
   523    H   13  dxz    Ryd( 4d)     0.00002       4.00319
   524    H   13  dyz    Ryd( 3d)     0.00002       1.34801
   525    H   13  dyz    Ryd( 4d)     0.00000       3.66046
   526    H   13  dx2y2  Ryd( 3d)     0.00010       2.41143
   527    H   13  dx2y2  Ryd( 4d)     0.00006       4.09647
   528    H   13  dz2    Ryd( 3d)     0.00002       1.87986
   529    H   13  dz2    Ryd( 4d)     0.00003       3.83190
 
   530    H   14  S      Val( 1S)     0.79046       0.03645
   531    H   14  S      Ryd( 4S)     0.00047       2.00892
   532    H   14  S      Ryd( 2S)     0.00011       0.81350
   533    H   14  S      Ryd( 3S)     0.00001       1.82676
   534    H   14  px     Ryd( 2p)     0.00041       1.03438
   535    H   14  px     Ryd( 4p)     0.00008       4.08807
   536    H   14  px     Ryd( 3p)     0.00007       3.12646
   537    H   14  py     Ryd( 2p)     0.00070       1.28326
   538    H   14  py     Ryd( 3p)     0.00017       3.96672
   539    H   14  py     Ryd( 4p)     0.00004       4.17871
   540    H   14  pz     Ryd( 2p)     0.00025       0.76225
   541    H   14  pz     Ryd( 4p)     0.00003       3.87064
   542    H   14  pz     Ryd( 3p)     0.00003       2.05350
   543    H   14  dxy    Ryd( 3d)     0.00004       2.40581
   544    H   14  dxy    Ryd( 4d)     0.00004       4.45552
   545    H   14  dxz    Ryd( 3d)     0.00001       1.46436
   546    H   14  dxz    Ryd( 4d)     0.00000       3.89527
   547    H   14  dyz    Ryd( 3d)     0.00000       1.57004
   548    H   14  dyz    Ryd( 4d)     0.00001       4.07154
   549    H   14  dx2y2  Ryd( 3d)     0.00003       2.17367
   550    H   14  dx2y2  Ryd( 4d)     0.00002       4.49721
   551    H   14  dz2    Ryd( 3d)     0.00002       2.38643
   552    H   14  dz2    Ryd( 4d)     0.00002       4.10974
 
   553    H   15  S      Val( 1S)     0.49075       0.14046
   554    H   15  S      Ryd( 4S)     0.00134       1.93169
   555    H   15  S      Ryd( 2S)     0.00012       0.69097
   556    H   15  S      Ryd( 3S)     0.00010       1.41545
   557    H   15  px     Ryd( 2p)     0.00030       2.48305
   558    H   15  px     Ryd( 4p)     0.00032       3.90469
   559    H   15  px     Ryd( 3p)     0.00002       3.33407
   560    H   15  py     Ryd( 2p)     0.00020       2.03498
   561    H   15  py     Ryd( 4p)     0.00004       3.28948
   562    H   15  py     Ryd( 3p)     0.00003       2.88008
   563    H   15  pz     Ryd( 2p)     0.00046       1.64640
   564    H   15  pz     Ryd( 4p)     0.00004       2.97392
   565    H   15  pz     Ryd( 3p)     0.00001       2.61698
   566    H   15  dxy    Ryd( 3d)     0.00003       1.61209
   567    H   15  dxy    Ryd( 4d)     0.00000       4.54219
   568    H   15  dxz    Ryd( 3d)     0.00009       1.17173
   569    H   15  dxz    Ryd( 4d)     0.00000       4.22745
   570    H   15  dyz    Ryd( 3d)     0.00003       1.20608
   571    H   15  dyz    Ryd( 4d)     0.00000       3.87892
   572    H   15  dx2y2  Ryd( 3d)     0.00013       1.59639
   573    H   15  dx2y2  Ryd( 4d)     0.00002       4.60254
   574    H   15  dz2    Ryd( 3d)     0.00012       1.74247
   575    H   15  dz2    Ryd( 4d)     0.00001       4.15087
 
   576    H   16  S      Val( 1S)     0.79253       0.03393
   577    H   16  S      Ryd( 4S)     0.00040       1.78186
   578    H   16  S      Ryd( 2S)     0.00016       0.85764
   579    H   16  S      Ryd( 3S)     0.00002       1.23906
   580    H   16  px     Ryd( 2p)     0.00044       1.51205
   581    H   16  px     Ryd( 4p)     0.00004       3.77520
   582    H   16  px     Ryd( 3p)     0.00004       2.54784
   583    H   16  py     Ryd( 2p)     0.00061       1.32378
   584    H   16  py     Ryd( 4p)     0.00006       4.31058
   585    H   16  py     Ryd( 3p)     0.00003       2.65368
   586    H   16  pz     Ryd( 2p)     0.00003       1.11729
   587    H   16  pz     Ryd( 4p)     0.00004       3.11577
   588    H   16  pz     Ryd( 3p)     0.00001       2.36748
   589    H   16  dxy    Ryd( 4d)     0.00004       4.35473
   590    H   16  dxy    Ryd( 3d)     0.00005       2.20261
   591    H   16  dxz    Ryd( 4d)     0.00001       4.01647
   592    H   16  dxz    Ryd( 3d)     0.00001       1.46997
   593    H   16  dyz    Ryd( 4d)     0.00001       4.05503
   594    H   16  dyz    Ryd( 3d)     0.00000       1.48322
   595    H   16  dx2y2  Ryd( 4d)     0.00003       4.33455
   596    H   16  dx2y2  Ryd( 3d)     0.00002       1.93131
   597    H   16  dz2    Ryd( 4d)     0.00003       3.97388
   598    H   16  dz2    Ryd( 3d)     0.00004       1.84047
 
   599    H   17  S      Val( 1S)     0.76841       0.04099
   600    H   17  S      Ryd( 4S)     0.00033       1.71850
   601    H   17  S      Ryd( 2S)     0.00011       0.81389
   602    H   17  S      Ryd( 3S)     0.00001       1.21836
   603    H   17  px     Ryd( 2p)     0.00046       1.02547
   604    H   17  px     Ryd( 4p)     0.00008       4.03965
   605    H   17  px     Ryd( 3p)     0.00007       2.61292
   606    H   17  py     Ryd( 2p)     0.00018       1.00908
   607    H   17  py     Ryd( 4p)     0.00005       3.72814
   608    H   17  py     Ryd( 3p)     0.00004       2.13224
   609    H   17  pz     Ryd( 2p)     0.00047       1.07217
   610    H   17  pz     Ryd( 4p)     0.00007       4.35134
   611    H   17  pz     Ryd( 3p)     0.00004       3.21518
   612    H   17  dxy    Ryd( 3d)     0.00001       1.66403
   613    H   17  dxy    Ryd( 4d)     0.00001       4.09368
   614    H   17  dxz    Ryd( 3d)     0.00005       2.28583
   615    H   17  dxz    Ryd( 4d)     0.00005       4.37006
   616    H   17  dyz    Ryd( 3d)     0.00002       1.66573
   617    H   17  dyz    Ryd( 4d)     0.00002       4.13728
   618    H   17  dx2y2  Ryd( 3d)     0.00003       1.64712
   619    H   17  dx2y2  Ryd( 4d)     0.00001       4.00474
   620    H   17  dz2    Ryd( 3d)     0.00003       1.78483
   621    H   17  dz2    Ryd( 4d)     0.00003       4.37355
 
   622    H   18  S      Val( 1S)     0.76841       0.04100
   623    H   18  S      Ryd( 4S)     0.00033       1.71857
   624    H   18  S      Ryd( 2S)     0.00011       0.81383
[...]
 607128,0.0002487,0.0010273,0.0002883,0.3208299,-1.0252047,0.3459017,-0
 .0004476,0.4079553,-1.1232354,0.0001959,-0.0004356,0.0001483,-0.371535
 5,-0.967365,-0.4468436,-0.0005492,-0.4669479,-0.8959026,-0.0004439,-0.
 0005567,-0.0004302,-0.342102,-0.0104584,-0.064363,-0.0000704,-0.168210
 2,0.0421893,-0.0001399,-0.0000838,-0.0000547,0.0660528,0.0286281,0.024
 1055,-0.0000719,0.0336943,0.1006103,0.0000245,-0.0000691,0.0000174,0.1
 219781,-0.0376552,-0.0601954,-0.0001492,-0.0503797,0.0287665,-0.000057
 7,-0.0001476,-0.0000653,0.1356226,0.0676558,-0.0029144,-0.0000477,-0.0
 106719,-0.0774667,-0.0000412,-0.0000489,-0.0000347,0.1261408,-0.049624
 6,0.0690858,-0.0001296,0.0512101,0.0258397,0.0000255,-0.0001332,0.0000
 394,0.1245574,0.2525113,0.1054971,-0.0000389,0.0684349,0.3421677,0.000
 0555,-0.0000443,0.0000824,0.3233378,-0.0365088,0.0389329,-0.0000834,0.
 1348274,-0.0466783,0.0000921,-0.0000698,0.0000138,0.0729105,-0.0033305
 ,-0.0281665,-0.0150831,-0.0387739,0.0380998,0.0606517,0.0238908,0.0729
 83,-0.0158753,-0.0033164,-0.0280507,0.0150959,-0.0386659,0.0381367,-0.
 0606996,-0.0238825,-0.0730143,-0.0159297\Polar=114.3633407,2.7052096,1
 26.2912472,0.0435032,0.0126926,60.5402252\Quadrupole=-0.6432741,3.7902
 214,-3.1469473,4.3398597,0.0028417,0.0044529\PG=C01 [X(C8H8O2)]\NImag=
 0\\0.70777269,-0.04159573,0.73471210,0.00044385,0.00006075,0.14768601,
 -0.13413864,-0.05169677,-0.00006258,0.74372513,0.02572844,-0.35592088,
 -0.00002580,0.03766646,0.69990618,-0.00005034,-0.00008805,-0.06663968,
 0.00049491,0.00012064,0.13654756,0.04582355,0.08726808,0.00004471,-0.2
 8755856,0.05528073,-0.00017008,0.68147493,0.02915935,-0.03223950,0.000
 01710,0.13326242,-0.19146390,0.00008713,0.00062689,0.75538366,0.000035
 54,0.00006395,0.00753538,-0.00015762,0.00002427,-0.06529730,0.00043290
 ,0.00009844,0.14429450,-0.02484811,-0.03551311,-0.00002074,-0.06082805
 ,0.03471883,-0.00005009,-0.29988672,-0.12873796,-0.00020934,0.74396997
 ,-0.03623441,-0.05954068,-0.00003766,-0.02309099,0.07684063,-0.0000076
 5,-0.04892078,-0.18213528,-0.00005801,-0.02114632,0.68169977,-0.000020
 86,-0.00003713,-0.00615459,-0.00005933,0.00003891,0.00824975,-0.000196
 70,-0.00012240,-0.06573698,0.00048547,0.00006974,0.13807246,-0.0591542
 3,-0.02178186,-0.00005641,-0.01444278,0.03400777,-0.00000134,0.0350143
 7,-0.03157369,0.00001884,-0.12700300,-0.05101704,-0.00005354,0.6446172
 3,0.03452956,0.07597676,0.00003896,0.03474118,-0.06673065,0.00001825,-
 0.09275227,-0.02000837,-0.00007885,0.03192149,-0.31463409,-0.00001320,
 0.00085464,0.64383795,-0.00004743,-0.00000645,0.00655567,-0.00000125,0
 .00001768,-0.00603240,0.00000898,-0.00002949,0.00542175,-0.00004020,-0
 .00007997,-0.07076405,0.00037122,0.00007388,0.18472686,-0.27879647,-0.
 04212756,-0.00017640,0.03274385,-0.08355600,0.00000663,-0.07586292,0.0
 0295894,-0.00005554,0.04063234,0.07796348,0.00003821,-0.25388203,0.040
 84199,-0.00014235,0.69459856,-0.11030911,-0.16082904,-0.00010392,-0.02
 617516,-0.02666530,-0.00002658,-0.00043957,-0.00217042,0.00000032,0.02
 383206,-0.03150699,0.00001275,0.10052871,-0.17115109,0.00006518,-0.005
 20220,0.62776126,-0.00018720,-0.00004899,-0.06779653,0.00001549,-0.000
 07273,0.00814340,-0.00005586,0.00000304,-0.00638927,0.00002922,0.00005
 622,0.00886669,-0.00013251,0.00001711,-0.06943705,0.00043600,0.0000718
 5,0.15008743,0.01180948,-0.02663456,0.00000371,-0.00635962,-0.00670466
 ,-0.00001281,-0.00468446,0.00111273,-0.00000259,-0.00479873,0.00476430
 ,-0.00001030,0.00917014,0.02769810,0.00001244,-0.09869332,-0.00418443,
 -0.00001282,0.88636372,-0.02073342,-0.03313722,-0.00002207,-0.00462286
 ,0.00689366,-0.00000395,0.00206008,0.00209948,0.00000222,0.00294800,0.
 00267876,0.00000140,0.01792349,-0.01236397,0.00001230,0.00584186,-0.19
 313944,-0.00001252,-0.17289748,0.72703196,0.00000442,-0.00002729,0.001
 94079,-0.00001242,-0.00000555,0.00824456,-0.00000240,0.00000137,-0.001
 27114,-0.00001068,0.00000284,0.00898664,0.00001098,0.00002040,-0.00084
 677,-0.00001146,-0.00002034,-0.08398803,0.00048734,-0.00005102,0.21781
 023,-0.00871486,-0.00703935,-0.00000869,0.00141610,0.00229429,0.000002
 08,0.00067389,-0.00040116,0.00000042,0.00061895,0.00081897,0.00000209,
 0.00413367,-0.00060133,0.00000088,-0.00936136,0.03053081,-0.00001866,-
 0.57038133,0.28038803,-0.00033068,0.69818183,0.00408016,-0.00232768,0.
 00000260,0.00173524,0.00013280,0.00000160,0.00115966,-0.00114070,0.000
 00074,0.00115399,-0.00276014,0.00000088,-0.00926169,-0.00516509,-0.000
 00879,0.04584872,-0.03513084,0.00002631,0.27301743,-0.28618282,0.00017
 651,-0.31659944,0.29462405,-0.00000668,-0.00000597,0.00065329,0.000002
 03,0.00000194,-0.00076664,0.00000065,-0.00000050,0.00010032,0.00000230
 ,0.00000047,-0.00191874,-0.00000072,-0.00000187,0.00294482,-0.00001624
 ,0.00001462,0.02130817,-0.00033183,0.00018205,-0.08125884,0.00045942,-
 0.00020090,0.03397380,0.00201299,0.00159846,0.00000067,0.00185264,-0.0
 0125537,0.00000165,-0.00074492,-0.00053367,-0.00000081,0.00068648,0.00
 012198,0.00000110,-0.00489007,-0.00192389,-0.00000399,-0.00141380,-0.0
 1152758,-0.00001148,-0.22811984,-0.05461406,-0.00013379,-0.11888048,-0
 .01103505,-0.00011694,0.42577489,0.00536878,-0.00587751,0.00000320,-0.
 00140431,-0.00182629,-0.00000143,-0.00083415,-0.00026657,-0.00000074,0
 .00036630,0.00011348,0.00000040,-0.00284754,0.00100161,-0.00000205,-0.
 04047125,-0.02620277,-0.00003726,-0.08653680,-0.17593115,-0.00008413,0
 .00036257,0.03889036,0.00000157,-0.01934918,0.65509594,0.00000122,0.00
 000018,0.00147740,0.00000165,-0.00000125,-0.00048308,-0.00000089,-0.00
 000048,0.00015265,0.00000123,0.00000028,-0.00071997,-0.00000419,-0.000
 00143,-0.00024131,-0.00001593,-0.00001482,0.01107748,-0.00013883,-0.00
 005936,-0.06582756,-0.00011500,-0.00000731,0.03094497,0.00029439,0.000
 08219,0.03951386,0.00001115,0.00379562,-0.00000438,-0.00058497,-0.0005
 7385,0.00000030,0.00116800,0.00187437,-0.00000585,-0.00683250,-0.01000
 497,-0.00001460,-0.19616126,-0.05311159,-0.00010840,-0.02426992,-0.009
 10783,-0.00002300,0.00178483,-0.00046649,0.00000450,-0.00102709,-0.000
 20225,-0.00000155,-0.00376479,0.00565858,-0.00000110,0.50502612,0.0041
 0683,-0.00412472,0.00000163,-0.00193342,0.00018116,-0.00000135,0.00327
 036,-0.00345578,0.00000075,-0.03436843,-0.01899628,-0.00003217,-0.0385
 9528,-0.10630466,-0.00003659,0.01189533,0.01672964,0.00001179,-0.00090
 067,-0.00224389,-0.00000040,-0.00004091,0.00073296,-0.00000007,0.00494
 972,-0.00596386,0.00000337,-0.04076807,0.58611031,-0.00000434,0.000001
 48,0.00618246,0.00000016,-0.00000027,-0.00108573,-0.00000564,-0.000000
 46,0.00870697,-0.00001839,-0.00001257,0.00915657,-0.00010655,-0.000048
 42,-0.07237177,-0.00001960,-0.00000526,0.00239812,0.00000452,0.,-0.003
 89306,-0.00000154,-0.00000023,0.00090049,-0.00000127,0.00000389,-0.001
 39842,-0.00004303,-0.00002714,0.55082360,-0.26015152,0.13100649,-0.000
 15435,0.00716110,-0.00348583,0.00000081,0.00127484,-0.00126604,-0.0000
 0533,0.00022424,-0.00082409,0.00000087,-0.00323035,-0.00383700,-0.0000
 0828,-0.01941685,0.01581604,-0.00001687,-0.00371692,0.00230446,0.00000
 072,0.00296582,0.00106396,0.00000278,0.00106999,0.00006727,0.00000074,
 -0.00042318,0.00114929,-0.00000046,0.27398007,0.13401126,-0.14481843,0
 .00009139,0.02567926,-0.01037919,0.00001811,-0.00091683,-0.00543728,-0
 .00000286,-0.00114570,-0.00090443,-0.00000090,-0.00338133,-0.00106757,
 -0.00000391,-0.01101421,0.01212786,-0.00000769,-0.00293850,0.00030570,
 -0.00000160,-0.00009072,-0.00393034,-0.00000066,0.00165058,0.00063052,
 0.00000134,-0.00053523,0.00069957,-0.00000039,-0.14186671,0.15233192,-
 0.00015383,0.00008888,-0.04203318,0.00000546,-0.00000536,0.00546493,-0
 .00000532,-0.00000311,0.00766898,0.00000083,-0.00000062,-0.00102497,-0
 .00000822,-0.00000430,0.00631342,-0.00002121,0.00001406,0.00470886,-0.
 00000018,0.00000247,-0.00402633,0.00000260,0.00000020,-0.00031557,0.00
 000109,0.00000020,0.00012107,-0.00000072,0.00000097,0.00036783,0.00017
 484,-0.00009422,0.02815440,0.00311724,0.00143716,0.00000009,-0.2849035
 7,-0.11710511,-0.00021732,-0.01789888,-0.01466074,-0.00001944,-0.00270
 413,0.00409587,-0.00000758,0.00003808,0.00087313,0.00000092,0.00186191
 ,0.00029904,-0.00000474,0.00002433,0.00041461,-0.00000022,0.00006613,-
 0.00020690,-0.00000003,-0.00001597,-0.00008747,0.00000013,-0.00000508,
 -0.00004068,0.00000093,0.00055819,-0.00037243,0.00000396,0.29976301,-0
 .02941602,-0.00960805,-0.00002575,-0.11692524,-0.11992187,-0.00010722,
 0.01625803,0.01223924,0.00001451,0.00335193,-0.00110133,0.00000132,0.0
 0092290,-0.00113919,0.00000071,0.00099068,-0.00529943,-0.00000132,-0.0
 0171324,0.00063731,-0.00000133,0.00037989,-0.00028216,0.00000024,-0.00
 010963,-0.00088360,-0.00000019,-0.00004034,0.00018885,0.00000019,0.000
 45490,0.00114050,0.00000126,0.12589607,0.12294896,-0.00000485,-0.00000
 089,0.00329600,-0.00021726,-0.00010737,-0.03824739,-0.00001450,-0.0000
 1037,0.00332976,-0.00000770,0.00000191,0.00752441,0.00000093,0.0000006
 6,-0.00092881,-0.00000466,-0.00000186,0.00781274,-0.00000056,0.0000003
 6,0.00037784,0.00000006,-0.00000023,0.00006238,0.00000014,-0.00000018,
 -0.00020025,0.00000096,0.00000018,-0.00118109,0.00000409,0.00000061,-0
 .00443874,0.00024023,0.00011683,0.02638984,-0.00446352,0.00324323,-0.0
 0000922,0.00647356,0.02719651,0.00000562,-0.06035719,-0.00729141,-0.00
 001655,0.00438495,-0.02860468,-0.00000487,-0.00446619,-0.00256388,-0.0
 0001040,-0.00165199,0.00000755,-0.00000056,-0.00032953,0.00009059,0.00
 000089,0.00031860,0.00005690,0.00000010,0.00015351,0.00009207,0.000000
 08,0.00030002,-0.00103227,0.00000045,0.00026019,0.00122636,0.00000059,
 0.00093980,-0.00075333,0.00000386,0.05796615,0.00352267,0.00005373,0.0
 0000162,-0.00345267,-0.01142844,-0.00000539,-0.00748438,-0.34264394,-0
 .00005429,0.00247732,-0.01027663,-0.00000041,-0.00261001,0.00089682,-0
 .00000324,0.00001143,0.00092056,0.00000031,0.00009566,-0.00007704,0.00
 000029,-0.00008719,-0.00014397,-0.00000013,-0.00004882,-0.00007922,-0.
 00000006,0.00025073,-0.00053359,0.00000019,-0.00031364,-0.00055252,-0.
 00000030,0.00023484,0.00069865,0.00000094,0.00795904,0.36254998,-0.000
 00916,0.00000139,0.00763209,0.00000071,0.00001929,0.00490329,-0.000016
 57,-0.00005413,-0.04128346,0.00000008,-0.00002546,0.00475297,-0.000010
 41,-0.00000318,0.00792139,-0.00000060,0.00000032,-0.00094558,0.0000008
 8,0.00000027,-0.00140009,0.00000009,-0.00000002,0.00020194,0.00000007,
 0.00000006,0.00006905,0.00000067,-0.00000085,-0.00046490,0.00000034,0.
 00000094,-0.00022665,0.00000402,0.00000015,-0.00400434,0.00002624,0.00
 006015,0.02699313,0.00011067,-0.00100425,0.00000075,-0.00339142,-0.003
 91265,-0.00000930,-0.01881380,0.01682894,-0.00001538,-0.25833081,0.129
 27548,-0.00015707,0.00182579,-0.00218197,-0.00000212,0.00158288,-0.000
 41706,-0.00000409,-0.00001643,-0.00070556,-0.00000051,0.00002466,0.000
 14407,0.00000028,0.00021183,0.00012990,0.00000018,0.00082135,-0.002026
 59,0.00000414,-0.00003008,0.00007402,0.00000065,-0.00094460,0.00084985
 ,-0.00000079,0.00088040,-0.00027789,0.00000409,0.27551087,-0.00108135,
 -0.00094613,-0.00000086,-0.00323838,-0.00042962,-0.00000386,-0.0141562
 4,0.01162640,-0.00001014,0.12712755,-0.13910600,0.00008642,0.02621892,
 -0.01361336,0.00001834,-0.00128567,-0.00565913,-0.00000295,0.00157651,
 0.00095290,0.00000135,0.00032677,-0.00104311,0.00000012,-0.00038431,-0
 .00030012,-0.00000036,0.00271181,0.00031252,0.00000303,0.00009418,0.00
 002740,0.00000021,-0.00073591,0.00041543,-0.00000056,0.00054835,0.0007
 3679,0.00000124,-0.13567603,0.14688409,0.00000072,-0.00000084,-0.00101
 929,-0.00000920,-0.00000437,0.00736164,-0.00002026,0.00001487,0.003579
 21,-0.00015746,0.00008813,-0.03815507,0.00000236,-0.00000452,0.0040064
 3,-0.00000419,-0.00000229,0.00656196,-0.00000016,-0.00000051,0.0005034
 5,0.00000031,0.00000001,-0.00030384,0.00000011,0.00000006,0.00000439,0
 .00000497,-0.00000088,-0.00472885,0.00000065,0.00000020,-0.00081614,-0
 .00000104,0.00000072,0.00020072,0.00000422,0.00000058,-0.00424351,0.00
 017947,-0.00009021,0.02631575,0.00043602,-0.00129075,-0.00000020,-0.00
 050489,-0.00012774,-0.00000013,-0.00008829,0.00009875,-0.00000010,0.00
 004705,0.00012284,0.00000019,0.00002398,-0.00010385,0.00000036,-0.0056
 7673,-0.00117208,-0.00000814,0.01266674,-0.05303179,-0.00000239,-0.000
 89501,0.00755792,0.00000524,-0.07469273,0.13555051,-0.00002331,-0.0008
 9188,0.00052316,-0.00000074,-0.00011336,-0.00012075,-0.00000026,0.0000
 0819,-0.00011342,0.00000002,-0.00000015,0.00001046,-0.00000002,0.00000
 166,0.00000696,0.,0.06958080,0.00039358,-0.00085254,0.00000014,-0.0005
 8429,0.00019608,-0.00000038,0.00006320,0.00013059,0.00000007,0.0000958
 0,0.00010129,0.00000011,0.00011794,0.00033224,0.00000019,-0.00358290,0
 .00223398,-0.00000319,-0.00608463,-0.03888385,-0.00001160,0.00941945,0
 .00392067,0.00000881,0.08857732,-0.47236919,-0.00000408,0.00026185,0.0
 0016072,0.00000022,-0.00017235,-0.00009872,-0.00000019,0.00003465,-0.0
 0006467,0.00000002,0.00000092,0.00001866,0.,0.00000620,0.00003198,0.,-
 0.08888139,0.50533299,0.00000003,-0.00000114,0.00045399,-0.00000012,-0
 .00000003,-0.00041042,-0.00000012,0.00000008,0.00005623,0.00000019,0.0
 0000015,-0.00017479,0.00000042,-0.00000001,-0.00046411,-0.00000850,-0.
 00000132,0.00462681,0.00000494,-0.00004789,0.00487335,0.00000556,0.000
 00740,-0.00615141,-0.00003069,0.00003214,-0.01641131,-0.00000082,0.000
 00043,0.00014239,-0.00000028,-0.00000015,0.00020286,0.00000005,-0.0000
 0009,-0.00004726,-0.00000003,0.,0.00003199,0.,0.,0.00001597,0.00002950
 ,0.00000966,0.01299788,-0.00064080,0.00162366,-0.00000049,0.00029209,-
 0.00036376,0.00000010,-0.00003736,-0.00033369,0.00000014,0.00088997,0.
 00313228,0.00000134,-0.02353144,0.02221752,-0.00001437,-0.00353175,-0.
 00416940,-0.00000466,0.00006320,-0.00107181,0.00000013,-0.00003266,0.0
 0039963,0.00000012,0.00068439,0.00018215,-0.00000019,-0.17218421,0.133
 51649,-0.00008053,-0.00038722,-0.00027506,-0.00000025,0.00007286,-0.00
 010079,0.00000002,0.00000463,-0.00000368,0.00000005,0.00041507,-0.0015
 2049,-0.00000030,0.00002040,-0.00013151,-0.00000013,0.19096091,-0.0005
 5873,0.00034099,-0.00000043,-0.00015107,0.00006192,-0.00000013,-0.0000
 9039,0.00039496,0.,-0.00299124,0.00002889,-0.00000242,-0.01084829,0.00
 926128,-0.00000724,-0.00231758,-0.00116451,-0.00000226,-0.00159888,-0.
 00122973,-0.00000139,0.00074330,0.00017294,0.00000060,0.00158289,-0.00
 084816,0.00000102,0.13927467,-0.19557323,0.00009214,-0.00016692,-0.000
 08942,-0.00000013,0.00001202,0.00000880,0.00000001,0.00006508,0.000023
 62,0.00000007,-0.00069907,-0.00026364,-0.00000067,0.00035319,0.0001325
 4,0.00000029,-0.14528496,0.21335023,-0.00000084,0.00000132,0.00031577,
 0.00000014,-0.00000031,0.00009141,0.00000016,-0.00000017,-0.00025087,0
 .00000032,0.00000256,-0.00010285,-0.00001908,0.00001971,-0.00186858,-0
 .00000432,-0.00000377,0.00137173,0.00000004,-0.00000101,-0.00031708,0.
 00000015,0.00000036,-0.00009144,0.00000006,-0.00000012,0.00095763,-0.0
 0007972,0.00008743,-0.04961221,-0.00000024,-0.00000022,-0.00012112,0.0
 0000004,-0.00000008,0.00002283,0.00000006,0.,-0.00005414,-0.00000015,-
 0.00000137,0.00045224,-0.00000007,-0.00000011,0.00016117,0.00009704,-0
 .00009392,0.04595941,-0.00009220,-0.00064432,-0.00110504,-0.00047611,0
 .00009611,0.00013088,0.00025278,-0.00056169,-0.00118531,-0.00311036,-0
 .00022533,-0.00036081,-0.00405210,-0.01830283,0.02549317,0.00056943,0.
 00084501,-0.00057568,-0.00239339,-0.00191516,0.00116615,0.00044742,0.0
 0054404,-0.00015207,0.00003926,0.00187594,0.00007720,-0.05153280,-0.01
 996146,0.03041399,-0.00001249,0.00000796,-0.00002443,0.00001115,0.0000
 3387,0.00011486,-0.00020667,-0.00014194,0.00007557,0.00007073,-0.00026
 634,0.00031202,0.00003938,0.00023302,-0.00005238,0.00348730,0.01134225
 ,-0.01884623,0.05681504,-0.00048568,-0.00043059,-0.00039099,0.00009522
 ,0.00027690,0.00007806,-0.00019538,-0.00045611,-0.00099127,-0.00204514
 ,-0.00025037,-0.00008301,-0.00433604,-0.00956525,0.00871407,0.00160277
 ,-0.00042717,-0.00029953,0.00096409,0.00129443,0.00033212,-0.00020193,
 -0.00018342,0.00003427,0.00115124,-0.00259134,-0.00110884,-0.01961968,
 -0.13399716,0.13102574,-0.00001201,0.00000721,-0.00000611,-0.00004420,
 0.00001126,0.00016394,-0.00012054,-0.00008172,0.00003923,-0.00020421,0
 .00018668,0.00066863,0.00030917,-0.00016136,-0.00021047,-0.00392281,-0
 .01230608,0.01805360,0.02394284,0.14825616,0.00034261,0.00014774,-0.00
 004344,0.00003401,-0.00021672,-0.00002184,-0.00011014,-0.00013135,-0.0
 0030958,-0.00025936,-0.00067978,-0.00042937,0.00042904,-0.00221474,0.0
 0255432,-0.00026447,0.00025429,0.00079585,0.00161199,0.00136243,0.0000
 4848,-0.00087683,-0.00022552,-0.00014267,-0.00154640,0.00015646,0.0004
 8036,0.03085339,0.12840558,-0.22188392,0.00004276,0.00005502,0.0000002
 0,0.00000555,-0.00001079,0.00001580,-0.00000444,-0.00001649,0.00005847
 ,-0.00000994,-0.00005052,0.00013280,-0.00026245,0.00006538,0.00004805,
 -0.00122887,-0.00188022,0.00152905,-0.03213772,-0.14052731,0.23924481,
 -0.00009342,-0.00064444,0.00110472,-0.00047584,0.00009582,-0.00013158,
 0.00025073,-0.00056233,0.00118603,-0.00311152,-0.00022660,0.00035640,-
 0.00400983,-0.01829899,-0.02550918,0.00056817,0.00084521,0.00057556,-0
 .00238887,-0.00191249,-0.00117057,0.00044571,0.00054361,0.00015315,0.0
 0003659,0.00187663,-0.00007737,-0.05143380,-0.01974339,-0.03014211,-0.
 00001246,0.00000804,0.00002441,0.00001135,0.00003389,-0.00011485,-0.00
 020656,-0.00014195,-0.00007604,0.00007121,-0.00026633,-0.00031220,0.00
 003884,0.00023312,0.00005241,0.00345462,0.01133372,0.01885263,0.000143
 63,0.00312229,0.00338126,0.05671145,-0.00048618,-0.00043062,0.00039008
 ,0.00009537,0.00027682,-0.00007781,-0.00019706,-0.00045648,0.00099087,
 -0.00204536,-0.00025059,0.00007968,-0.00432159,-0.00956338,-0.00872463
 ,0.00160218,-0.00042717,0.00030180,0.00096504,0.00129493,-0.00033022,-
 0.00020207,-0.00018350,-0.00003459,0.00114938,-0.00259212,0.00110977,-
 0.01939736,-0.13392255,-0.13103215,-0.00001201,0.00000722,0.00000609,-
 0.00004394,0.00001131,-0.00016400,-0.00012048,-0.00008172,-0.00003946,
 -0.00020315,0.00018691,-0.00066891,0.00030879,-0.00016141,0.00021093,-
 0.00389380,-0.01230141,-0.01806393,0.00309805,0.01041794,0.01550653,0.
 02370419,0.14817582,-0.00034287,-0.00014896,-0.00004212,-0.00003477,0.
 00021703,-0.00002205,0.00011109,0.00013042,-0.00030713,0.00025433,0.00
 067940,-0.00042811,-0.00044083,0.00218153,0.00251018,0.00026463,-0.000
 25325,0.00079723,-0.00161574,-0.00136519,0.00004357,0.00087773,0.00022
 639,-0.00014103,0.00154608,-0.00015427,0.00048305,-0.03058162,-0.12841
 269,-0.22205846,-0.00004279,-0.00005500,0.00000015,-0.00000557,0.00001
 084,0.00001556,0.00000398,0.00001621,0.00005834,0.00000979,0.00005010,
 0.00013213,0.00026251,-0.00006507,0.00004861,0.00123087,0.00189467,0.0
 0155705,-0.00334415,-0.01549213,-0.02207736,0.03184733,0.14053996,0.23
 943043\\-0.00006498,-0.00015014,-0.00000009,0.00008834,-0.00007336,0.0
 0000002,-0.00012483,0.00003754,-0.00000008,-0.00001324,0.00016208,-0.0
 0000003,0.00024432,-0.00021429,0.00000022,-0.00010830,0.00026200,0.000
 00041,-0.00015792,-0.00003656,-0.00000176,0.00006846,0.00001236,0.0000
 0071,0.00001355,0.00009689,0.00000051,0.00002969,-0.00014316,0.0000001
 1,0.00000597,0.00007143,0.00000005,-0.00002642,-0.00001867,-0.00000001
 ,0.00001700,-0.00004022,0.,0.00005019,-0.00002819,0.00000002,0.0000249
 5,-0.00004545,0.,-0.00001042,-0.00000683,-0.00000001,-0.00001813,0.000
 05727,-0.00003653,-0.00001821,0.00005731,0.00003645\\\@
 The archive entry for this job was punched.


 THE ONLY EXISTING THINGS ARE ATOMS AND EMPTY SPACE;
 ALL ELSE IS MERE OPINION. -- DEMOCRITUS OF ABDERA D. 370 B.C.
 EXPERIMENTS ARE THE ONLY MEANS OF KNOWLEDGE AT OUR DISPOSAL
 THE REST IS POETRY, IMAGINATION. -- MAX PLANCK
 Job cpu time:       0 days 17 hours 14 minutes 37.2 seconds.
 Elapsed time:       0 days  0 hours 51 minutes 44.9 seconds.
 File lengths (MBytes):  RWF=    491 Int=      0 D2E=      0 Chk=     41 Scr=      1
 Normal termination of Gaussian 16 at Wed Apr  2 13:27:45 2025.
