 Entering Gaussian System, Link 0=g16
 Initial command:
 /usr/local/gaussian16c01/g16/l1.exe "/scr/dhuang/Gau-231608.inp" -scrdir="/scr/dhuang/"
 Entering Link 1 = /usr/local/gaussian16c01/g16/l1.exe PID=    231609.
  
 Copyright (c) 1988-2019, Gaussian, Inc.  All Rights Reserved.
  
 This is part of the Gaussian(R) 16 program.  It is based on
 the Gaussian(R) 09 system (copyright 2009, Gaussian, Inc.),
 the Gaussian(R) 03 system (copyright 2003, Gaussian, Inc.),
 the Gaussian(R) 98 system (copyright 1998, Gaussian, Inc.),
 the Gaussian(R) 94 system (copyright 1995, Gaussian, Inc.),
 the Gaussian 92(TM) system (copyright 1992, Gaussian, Inc.),
 the Gaussian 90(TM) system (copyright 1990, Gaussian, Inc.),
 the Gaussian 88(TM) system (copyright 1988, Gaussian, Inc.),
 the Gaussian 86(TM) system (copyright 1986, Carnegie Mellon
 University), and the Gaussian 82(TM) system (copyright 1983,
 Carnegie Mellon University). Gaussian is a federally registered
 trademark of Gaussian, Inc.
  
 This software contains proprietary and confidential information,
 including trade secrets, belonging to Gaussian, Inc.
  
 This software is provided under written license and may be
 used, copied, transmitted, or stored only in accord with that
 written license.
  
 The following legend is applicable only to US Government
 contracts under FAR:
  
                    RESTRICTED RIGHTS LEGEND
  
 Use, reproduction and disclosure by the US Government is
 subject to restrictions as set forth in subparagraphs (a)
 and (c) of the Commercial Computer Software - Restricted
 Rights clause in FAR 52.227-19.
  
 Gaussian, Inc.
 340 Quinnipiac St., Bldg. 40, Wallingford CT 06492
  
  
 ---------------------------------------------------------------
 Warning -- This program may not be used in any manner that
 competes with the business of Gaussian, Inc. or will provide
 assistance to any competitor of Gaussian, Inc.  The licensee
 of this program is prohibited from giving any competitor of
 Gaussian, Inc. access to this program.  By using this program,
 the user acknowledges that Gaussian, Inc. is engaged in the
 business of creating and licensing software in the field of
 computational chemistry and represents and warrants to the
 licensee that it is not a competitor of Gaussian, Inc. and that
 it will not use this program in any manner prohibited above.
 ---------------------------------------------------------------
  

 Cite this work as:
 Gaussian 16, Revision C.01,
 M. J. Frisch, G. W. Trucks, H. B. Schlegel, G. E. Scuseria, 
 M. A. Robb, J. R. Cheeseman, G. Scalmani, V. Barone, 
 G. A. Petersson, H. Nakatsuji, X. Li, M. Caricato, A. V. Marenich, 
 J. Bloino, B. G. Janesko, R. Gomperts, B. Mennucci, H. P. Hratchian, 
 J. V. Ortiz, A. F. Izmaylov, J. L. Sonnenberg, D. Williams-Young, 
 F. Ding, F. Lipparini, F. Egidi, J. Goings, B. Peng, A. Petrone, 
 T. Henderson, D. Ranasinghe, V. G. Zakrzewski, J. Gao, N. Rega, 
 G. Zheng, W. Liang, M. Hada, M. Ehara, K. Toyota, R. Fukuda, 
 J. Hasegawa, M. Ishida, T. Nakajima, Y. Honda, O. Kitao, H. Nakai, 
 T. Vreven, K. Throssell, J. A. Montgomery, Jr., J. E. Peralta, 
 F. Ogliaro, M. J. Bearpark, J. J. Heyd, E. N. Brothers, K. N. Kudin, 
 V. N. Staroverov, T. A. Keith, R. Kobayashi, J. Normand, 
 K. Raghavachari, A. P. Rendell, J. C. Burant, S. S. Iyengar, 
 J. Tomasi, M. Cossi, J. M. Millam, M. Klene, C. Adamo, R. Cammi, 
 J. W. Ochterski, R. L. Martin, K. Morokuma, O. Farkas, 
 J. B. Foresman, and D. J. Fox, Gaussian, Inc., Wallingford CT, 2019.
 
 ******************************************
 Gaussian 16:  ES64L-G16RevC.01  3-Jul-2019
                 2-Apr-2025 
 ******************************************
 %nprocshared=20
 Will use up to   20 processors via shared memory.
 %mem=10000MW
 %chk=p-F.chk
 ------------------------------------
 # opt freq m062x/aug-cc-pvtz pop=nbo
 ------------------------------------
 1/18=20,19=15,26=3,38=1/1,3;
 2/9=110,12=2,17=6,18=5,40=1/2;
 3/5=16,6=1,7=10,11=2,25=1,30=1,71=1,74=-55/1,2,3;
 4//1;
 5/5=2,38=5/2;
 6/7=2,8=2,9=2,10=2,28=1,40=1/1,7;
 7//1,2,3,16;
 1/18=20,19=15,26=3/3(2);
 2/9=110/2;
 99//99;
 2/9=110/2;
 3/5=16,6=1,7=10,11=2,25=1,30=1,71=1,74=-55/1,2,3;
 4/5=5,16=3,69=1/1;
 5/5=2,38=5/2;
 7//1,2,3,16;
 1/18=20,19=15,26=3/3(-5);
 2/9=110/2;
 6/7=2,8=2,9=2,10=2,19=2,28=1,40=1/1,7;
 99/9=1/99;
 ---
 p-F
 ---
 Symbolic Z-matrix:
 Charge =  0 Multiplicity = 1
 C                    -1.2147   -0.4847    0.3268 
 C                    -0.9325   -1.7965    0.3773 
 C                     0.2902   -2.2435    0.0539 
 C                     1.2281   -1.3608   -0.3211 
 C                     0.9473   -0.0489   -0.3721 
 C                    -0.2778    0.4074   -0.0489 
 C                    -0.546     1.7447   -0.1062 
 O                    -1.63      2.2116    0.1733 
 O                     0.3858    2.6557   -0.4823 
 F                     0.5677   -3.5365    0.1038 
 H                    -2.2364   -0.1758    0.6038 
 H                    -1.7099   -2.5152    0.6868 
 H                     2.2364   -1.7187   -0.589 
 H                     1.7546    0.6334   -0.6868 
 H                    -0.0206    3.5365   -0.4506 
 

 GradGradGradGradGradGradGradGradGradGradGradGradGradGradGradGradGradGrad
 Berny optimization.
 Initialization pass.
                           ----------------------------
                           !    Initial Parameters    !
                           ! (Angstroms and Degrees)  !
 --------------------------                            --------------------------
 ! Name  Definition              Value          Derivative Info.                !
 --------------------------------------------------------------------------------
 ! R1    R(1,2)                  1.3428         estimate D2E/DX2                !
 ! R2    R(1,6)                  1.3471         estimate D2E/DX2                !
 ! R3    R(1,11)                 1.1027         estimate D2E/DX2                !
 ! R4    R(2,3)                  1.3414         estimate D2E/DX2                !
 ! R5    R(2,12)                 1.103          estimate D2E/DX2                !
 ! R6    R(3,4)                  1.3414         estimate D2E/DX2                !
 ! R7    R(3,10)                 1.3234         estimate D2E/DX2                !
 ! R8    R(4,5)                  1.3426         estimate D2E/DX2                !
 ! R9    R(4,13)                 1.103          estimate D2E/DX2                !
 ! R10   R(5,6)                  1.3467         estimate D2E/DX2                !
 ! R11   R(5,14)                 1.1029         estimate D2E/DX2                !
 ! R12   R(6,7)                  1.3651         estimate D2E/DX2                !
 ! R13   R(7,8)                  1.2129         estimate D2E/DX2                !
 ! R14   R(7,9)                  1.3563         estimate D2E/DX2                !
 ! R15   R(9,15)                 0.9706         estimate D2E/DX2                !
 ! A1    A(2,1,6)              120.7488         estimate D2E/DX2                !
 ! A2    A(2,1,11)             117.3185         estimate D2E/DX2                !
 ! A3    A(6,1,11)             121.9327         estimate D2E/DX2                !
 ! A4    A(1,2,3)              120.5337         estimate D2E/DX2                !
 ! A5    A(1,2,12)             119.9324         estimate D2E/DX2                !
 ! A6    A(3,2,12)             119.5339         estimate D2E/DX2                !
 ! A7    A(2,3,4)              119.0402         estimate D2E/DX2                !
 ! A8    A(2,3,10)             120.5055         estimate D2E/DX2                !
 ! A9    A(4,3,10)             120.4543         estimate D2E/DX2                !
 ! A10   A(3,4,5)              120.4892         estimate D2E/DX2                !
 ! A11   A(3,4,13)             119.574          estimate D2E/DX2                !
 ! A12   A(5,4,13)             119.9368         estimate D2E/DX2                !
 ! A13   A(4,5,6)              120.8132         estimate D2E/DX2                !
 ! A14   A(4,5,14)             117.5334         estimate D2E/DX2                !
 ! A15   A(6,5,14)             121.6534         estimate D2E/DX2                !
 ! A16   A(1,6,5)              118.3749         estimate D2E/DX2                !
 ! A17   A(1,6,7)              121.5867         estimate D2E/DX2                !
 ! A18   A(5,6,7)              120.0384         estimate D2E/DX2                !
 ! A19   A(6,7,8)              122.8882         estimate D2E/DX2                !
 ! A20   A(6,7,9)              122.3195         estimate D2E/DX2                !
 ! A21   A(8,7,9)              114.7923         estimate D2E/DX2                !
 ! A22   A(7,9,15)             108.2297         estimate D2E/DX2                !
 ! D1    D(6,1,2,3)              0.0029         estimate D2E/DX2                !
 ! D2    D(6,1,2,12)          -179.9994         estimate D2E/DX2                !
 ! D3    D(11,1,2,3)          -179.9959         estimate D2E/DX2                !
 ! D4    D(11,1,2,12)            0.0018         estimate D2E/DX2                !
 ! D5    D(2,1,6,5)             -0.0011         estimate D2E/DX2                !
 ! D6    D(2,1,6,7)           -179.9965         estimate D2E/DX2                !
 ! D7    D(11,1,6,5)           179.9976         estimate D2E/DX2                !
 ! D8    D(11,1,6,7)             0.0023         estimate D2E/DX2                !
 ! D9    D(1,2,3,4)             -0.0015         estimate D2E/DX2                !
 ! D10   D(1,2,3,10)          -179.9964         estimate D2E/DX2                !
 ! D11   D(12,2,3,4)          -179.9992         estimate D2E/DX2                !
 ! D12   D(12,2,3,10)            0.0059         estimate D2E/DX2                !
 ! D13   D(2,3,4,5)             -0.0016         estimate D2E/DX2                !
 ! D14   D(2,3,4,13)          -179.9944         estimate D2E/DX2                !
 ! D15   D(10,3,4,5)           179.9933         estimate D2E/DX2                !
 ! D16   D(10,3,4,13)            0.0005         estimate D2E/DX2                !
 ! D17   D(3,4,5,6)              0.0034         estimate D2E/DX2                !
 ! D18   D(3,4,5,14)           179.9969         estimate D2E/DX2                !
 ! D19   D(13,4,5,6)           179.9962         estimate D2E/DX2                !
 ! D20   D(13,4,5,14)           -0.0103         estimate D2E/DX2                !
 ! D21   D(4,5,6,1)             -0.002          estimate D2E/DX2                !
 ! D22   D(4,5,6,7)            179.9935         estimate D2E/DX2                !
 ! D23   D(14,5,6,1)          -179.9952         estimate D2E/DX2                !
 ! D24   D(14,5,6,7)             0.0002         estimate D2E/DX2                !
 ! D25   D(1,6,7,8)             -0.0015         estimate D2E/DX2                !
 ! D26   D(1,6,7,9)            179.9993         estimate D2E/DX2                !
 ! D27   D(5,6,7,8)           -179.9968         estimate D2E/DX2                !
 ! D28   D(5,6,7,9)              0.004          estimate D2E/DX2                !
 ! D29   D(6,7,9,15)           179.9973         estimate D2E/DX2                !
 ! D30   D(8,7,9,15)            -0.0019         estimate D2E/DX2                !
 --------------------------------------------------------------------------------
 Trust Radius=3.00D-01 FncErr=1.00D-07 GrdErr=1.00D-06 EigMax=2.50D+02 EigMin=1.00D-04
 Number of steps in this run=     77 maximum allowed number of steps=    100.
 GradGradGradGradGradGradGradGradGradGradGradGradGradGradGradGradGradGrad

                          Input orientation:                          
 ---------------------------------------------------------------------
 Center     Atomic      Atomic             Coordinates (Angstroms)
 Number     Number       Type             X           Y           Z
 ---------------------------------------------------------------------
      1          6           0       -1.214700   -0.484700    0.326800
      2          6           0       -0.932500   -1.796500    0.377300
      3          6           0        0.290200   -2.243500    0.053900
      4          6           0        1.228100   -1.360800   -0.321100
      5          6           0        0.947300   -0.048900   -0.372100
      6          6           0       -0.277800    0.407400   -0.048900
      7          6           0       -0.546000    1.744700   -0.106200
      8          8           0       -1.630000    2.211600    0.173300
      9          8           0        0.385800    2.655700   -0.482300
     10          9           0        0.567700   -3.536500    0.103800
     11          1           0       -2.236400   -0.175800    0.603800
     12          1           0       -1.709900   -2.515200    0.686800
     13          1           0        2.236400   -1.718700   -0.589000
     14          1           0        1.754600    0.633400   -0.686800
     15          1           0       -0.020600    3.536500   -0.450600
 ---------------------------------------------------------------------
                    Distance matrix (angstroms):
                    1          2          3          4          5
     1  C    0.000000
     2  C    1.342761   0.000000
     3  C    2.330789   1.341414   0.000000
     4  C    2.674808   2.312096   1.341432   0.000000
     5  C    2.313574   2.673828   2.330134   1.342584   0.000000
     6  C    1.347136   2.338259   2.713017   2.338452   1.346677
     7  C    2.367461   3.594892   4.078063   3.582980   2.348968
     8  O    2.732411   4.073449   4.852766   4.601653   3.471282
     9  O    3.616401   4.722172   4.929382   4.107034   2.764469
    10  F    3.541209   2.313656   1.323384   2.313080   3.540329
    11  H    1.102733   2.092397   3.310813   3.776563   3.332331
    12  H    2.120791   1.103028   2.115368   3.313660   3.776853
    13  H    3.777769   3.313867   2.115758   1.102965   2.120626
    14  H    3.330807   3.775875   3.312047   2.094701   1.102861
    15  H    4.266178   5.473378   5.810294   5.055647   3.714577
                    6          7          8          9         10
     6  C    0.000000
     7  C    1.365132   0.000000
     8  O    2.265603   1.212919   0.000000
     9  O    2.383916   1.356327   2.165753   0.000000
    10  F    4.036401   5.401435   6.154297   6.222535   0.000000
    11  H    2.145286   2.655160   2.500546   4.009107   4.405370
    12  H    3.336728   4.486676   4.755282   5.700611   2.563280
    13  H    3.336647   4.468779   5.565735   4.750945   2.562992
    14  H    2.142112   2.620085   3.832232   2.450537   4.407022
    15  H    3.165246   1.898737   2.175955   0.970554   7.119044
                   11         12         13         14         15
    11  H    0.000000
    12  H    2.399351   0.000000
    13  H    4.879473   4.223193   0.000000
    14  H    4.271830   4.878854   2.402930   0.000000
    15  H    4.450023   6.385177   5.721043   3.411028   0.000000
 Stoichiometry    C7H5FO2
 Framework group  C1[X(C7H5FO2)]
 Deg. of freedom    39
 Full point group                 C1      NOp   1
 Largest Abelian subgroup         C1      NOp   1
 Largest concise Abelian subgroup C1      NOp   1
                         Standard orientation:                         
 ---------------------------------------------------------------------
 Center     Atomic      Atomic             Coordinates (Angstroms)
 Number     Number       Type             X           Y           Z
 ---------------------------------------------------------------------
      1          6           0       -0.079631    1.190432   -0.000029
      2          6           0       -1.421651    1.145844   -0.000011
      3          6           0       -2.064407   -0.031550    0.000043
      4          6           0       -1.347034   -1.165048    0.000048
      5          6           0       -0.005143   -1.121943   -0.000033
      6          6           0        0.647191    0.056191   -0.000052
      7          6           0        2.012087    0.081565    0.000000
      8          8           0        2.651658    1.112158    0.000044
      9          8           0        2.758415   -1.050963   -0.000009
     10          9           0       -3.387083   -0.074845   -0.000010
     11          1           0        0.393640    2.186441   -0.000004
     12          1           0       -2.003477    2.082941   -0.000002
     13          1           0       -1.866492   -2.138030   -0.000001
     14          1           0        0.535808   -2.083023    0.000027
     15          1           0        3.695215   -0.797232   -0.000009
 ---------------------------------------------------------------------
 Rotational constants (GHZ):           4.1897526           0.8090687           0.6781194
 Standard basis: Aug-CC-pVTZ (5D, 7F)
 There are   675 symmetry adapted cartesian basis functions of A   symmetry.
 There are   575 symmetry adapted basis functions of A   symmetry.
   575 basis functions,   855 primitive gaussians,   675 cartesian basis functions
    36 alpha electrons       36 beta electrons
       nuclear repulsion energy       499.1227208177 Hartrees.
 NAtoms=   15 NActive=   15 NUniq=   15 SFac= 1.00D+00 NAtFMM=   60 NAOKFM=F Big=F
 Integral buffers will be    131072 words long.
 Raffenetti 2 integral format.
 Two-electron integral symmetry is turned on.
 One-electron integrals computed using PRISM.
 NBasis=   575 RedAO= T EigKep=  1.40D-06  NBF=   575
 NBsUse=   573 1.00D-06 EigRej=  8.92D-07 NBFU=   573
 ExpMin= 2.53D-02 ExpMax= 1.95D+04 ExpMxC= 6.65D+02 IAcc=3 IRadAn=         5 AccDes= 0.00D+00
 Harris functional with IExCor= 1009 and IRadAn=       5 diagonalized for initial guess.
 HarFok:  IExCor= 1009 AccDes= 0.00D+00 IRadAn=         5 IDoV= 1 UseB2=F ITyADJ=14
 ICtDFT=  3500011 ScaDFX=  1.000000  1.000000  1.000000  1.000000
 FoFCou: FMM=F IPFlag=           0 FMFlag=      100000 FMFlg1=           0
         NFxFlg=           0 DoJE=T BraDBF=F KetDBF=T FulRan=T
         wScrn=  0.000000 ICntrl=       500 IOpCl=  0 I1Cent=   200000004 NGrid=           0
         NMat0=    1 NMatS0=      1 NMatT0=    0 NMatD0=    1 NMtDS0=    0 NMtDT0=    0
 Petite list used in FoFCou.
 Requested convergence on RMS density matrix=1.00D-08 within 128 cycles.
 Requested convergence on MAX density matrix=1.00D-06.
 Requested convergence on             energy=1.00D-06.
 No special actions if energy rises.
 SCF Done:  E(RM062X) =  -520.042451430     A.U. after   14 cycles
            NFock= 14  Conv=0.24D-08     -V/T= 2.0032

 **********************************************************************

            Population analysis using the SCF Density.

 **********************************************************************

 Orbital symmetries:
       Occupied  (A) (A) (A) (A) (A) (A) (A) (A) (A) (A) (A) (A)
                 (A) (A) (A) (A) (A) (A) (A) (A) (A) (A) (A) (A)
                 (A) (A) (A) (A) (A) (A) (A) (A) (A) (A) (A) (A)
       Virtual   (A) (A) (A) (A) (A) (A) (A) (A) (A) (A) (A) (A)
                 (A) (A) (A) (A) (A) (A) (A) (A) (A) (A) (A) (A)
                 (A) (A) (A) (A) (A) (A) (A) (A) (A) (A) (A) (A)
                 (A) (A) (A) (A) (A) (A) (A) (A) (A) (A) (A) (A)
                 (A) (A) (A) (A) (A) (A) (A) (A) (A) (A) (A) (A)
                 (A) (A) (A) (A) (A) (A) (A) (A) (A) (A) (A) (A)
                 (A) (A) (A) (A) (A) (A) (A) (A) (A) (A) (A) (A)
                 (A) (A) (A) (A) (A) (A) (A) (A) (A) (A) (A) (A)
                 (A) (A) (A) (A) (A) (A) (A) (A) (A) (A) (A) (A)
                 (A) (A) (A) (A) (A) (A) (A) (A) (A) (A) (A) (A)
                 (A) (A) (A) (A) (A) (A) (A) (A) (A) (A) (A) (A)
                 (A) (A) (A) (A) (A) (A) (A) (A) (A) (A) (A) (A)
                 (A) (A) (A) (A) (A) (A) (A) (A) (A) (A) (A) (A)
                 (A) (A) (A) (A) (A) (A) (A) (A) (A) (A) (A) (A)
                 (A) (A) (A) (A) (A) (A) (A) (A) (A) (A) (A) (A)
                 (A) (A) (A) (A) (A) (A) (A) (A) (A) (A) (A) (A)
                 (A) (A) (A) (A) (A) (A) (A) (A) (A) (A) (A) (A)
                 (A) (A) (A) (A) (A) (A) (A) (A) (A) (A) (A) (A)
                 (A) (A) (A) (A) (A) (A) (A) (A) (A) (A) (A) (A)
                 (A) (A) (A) (A) (A) (A) (A) (A) (A) (A) (A) (A)
                 (A) (A) (A) (A) (A) (A) (A) (A) (A) (A) (A) (A)
                 (A) (A) (A) (A) (A) (A) (A) (A) (A) (A) (A) (A)
                 (A) (A) (A) (A) (A) (A) (A) (A) (A) (A) (A) (A)
                 (A) (A) (A) (A) (A) (A) (A) (A) (A) (A) (A) (A)
                 (A) (A) (A) (A) (A) (A) (A) (A) (A) (A) (A) (A)
                 (A) (A) (A) (A) (A) (A) (A) (A) (A) (A) (A) (A)
                 (A) (A) (A) (A) (A) (A) (A) (A) (A) (A) (A) (A)
                 (A) (A) (A) (A) (A) (A) (A) (A) (A) (A) (A) (A)
                 (A) (A) (A) (A) (A) (A) (A) (A) (A) (A) (A) (A)
                 (A) (A) (A) (A) (A) (A) (A) (A) (A) (A) (A) (A)
                 (A) (A) (A) (A) (A) (A) (A) (A) (A) (A) (A) (A)
                 (A) (A) (A) (A) (A) (A) (A) (A) (A) (A) (A) (A)
                 (A) (A) (A) (A) (A) (A) (A) (A) (A) (A) (A) (A)
                 (A) (A) (A) (A) (A) (A) (A) (A) (A) (A) (A) (A)
                 (A) (A) (A) (A) (A) (A) (A) (A) (A) (A) (A) (A)
                 (A) (A) (A) (A) (A) (A) (A) (A) (A) (A) (A) (A)
                 (A) (A) (A) (A) (A) (A) (A) (A) (A) (A) (A) (A)
                 (A) (A) (A) (A) (A) (A) (A) (A) (A) (A) (A) (A)
                 (A) (A) (A) (A) (A) (A) (A) (A) (A) (A) (A) (A)
                 (A) (A) (A) (A) (A) (A) (A) (A) (A) (A) (A) (A)
                 (A) (A) (A) (A) (A) (A) (A) (A) (A) (A) (A) (A)
                 (A) (A) (A) (A) (A) (A) (A) (A) (A) (A) (A) (A)
                 (A) (A) (A) (A) (A) (A) (A) (A) (A) (A) (A) (A)
                 (A) (A) (A) (A) (A) (A) (A) (A) (A) (A) (A) (A)
                 (A) (A) (A) (A) (A) (A) (A) (A) (A)
 The electronic state is 1-A.
 Alpha  occ. eigenvalues --  -25.27898 -19.67037 -19.60906 -10.67472 -10.64419
 Alpha  occ. eigenvalues --  -10.56743 -10.56700 -10.55916 -10.55869 -10.55796
 Alpha  occ. eigenvalues --   -1.40399  -1.24203  -1.13253  -1.02647  -0.91496
 Alpha  occ. eigenvalues --   -0.88985  -0.78493  -0.74273  -0.69846  -0.66147
 Alpha  occ. eigenvalues --   -0.63523  -0.60509  -0.59815  -0.57284  -0.55103
 Alpha  occ. eigenvalues --   -0.53371  -0.52147  -0.50983  -0.50029  -0.47190
 Alpha  occ. eigenvalues --   -0.47171  -0.42276  -0.39995  -0.35937  -0.34753
 Alpha  occ. eigenvalues --   -0.33457
 Alpha virt. eigenvalues --   -0.03371  -0.00810   0.00214   0.00248   0.00565
 Alpha virt. eigenvalues --    0.02088   0.02831   0.02848   0.03444   0.05261
 Alpha virt. eigenvalues --    0.05864   0.05923   0.06181   0.07068   0.07849
 Alpha virt. eigenvalues --    0.08164   0.08216   0.09296   0.09342   0.09498
 Alpha virt. eigenvalues --    0.09910   0.10161   0.10172   0.11216   0.11266
 Alpha virt. eigenvalues --    0.11314   0.12593   0.12741   0.13467   0.14223
 Alpha virt. eigenvalues --    0.16163   0.16449   0.17132   0.17649   0.18548
 Alpha virt. eigenvalues --    0.19231   0.19613   0.19903   0.20376   0.20638
 Alpha virt. eigenvalues --    0.21622   0.21673   0.22508   0.22917   0.23394
 Alpha virt. eigenvalues --    0.23450   0.23645   0.24122   0.24859   0.25118
 Alpha virt. eigenvalues --    0.25719   0.25974   0.26815   0.27502   0.28416
 Alpha virt. eigenvalues --    0.28439   0.28901   0.29783   0.30575   0.31480
 Alpha virt. eigenvalues --    0.32322   0.32559   0.33227   0.33298   0.34124
 Alpha virt. eigenvalues --    0.34948   0.35371   0.35463   0.36109   0.36216
 Alpha virt. eigenvalues --    0.36446   0.36775   0.37251   0.37703   0.38335
 Alpha virt. eigenvalues --    0.38902   0.39152   0.40317   0.40976   0.41448
 Alpha virt. eigenvalues --    0.41668   0.43236   0.43787   0.44158   0.44950
 Alpha virt. eigenvalues --    0.45316   0.45343   0.46063   0.47096   0.48829
 Alpha virt. eigenvalues --    0.49014   0.49050   0.51125   0.51864   0.53102
 Alpha virt. eigenvalues --    0.53686   0.53999   0.54707   0.54936   0.55800
 Alpha virt. eigenvalues --    0.55818   0.56190   0.56393   0.58801   0.59028
 Alpha virt. eigenvalues --    0.60303   0.61721   0.62423   0.62537   0.64333
 Alpha virt. eigenvalues --    0.64362   0.65231   0.66223   0.66867   0.68165
 Alpha virt. eigenvalues --    0.68254   0.68985   0.70566   0.71387   0.71936
 Alpha virt. eigenvalues --    0.72747   0.73542   0.73648   0.74371   0.74534
 Alpha virt. eigenvalues --    0.75383   0.75534   0.75554   0.76928   0.77778
 Alpha virt. eigenvalues --    0.78022   0.78403   0.79574   0.79731   0.80200
 Alpha virt. eigenvalues --    0.80826   0.81227   0.81708   0.82980   0.83075
 Alpha virt. eigenvalues --    0.84208   0.84778   0.84970   0.85909   0.86026
 Alpha virt. eigenvalues --    0.87544   0.88477   0.88669   0.88852   0.89772
 Alpha virt. eigenvalues --    0.90140   0.91621   0.92032   0.92655   0.93772
 Alpha virt. eigenvalues --    0.94342   0.94453   0.94987   0.95444   0.96845
 Alpha virt. eigenvalues --    0.97411   0.98719   0.99410   1.00014   1.00286
 Alpha virt. eigenvalues --    1.01328   1.01475   1.03844   1.04524   1.05422
 Alpha virt. eigenvalues --    1.05513   1.05578   1.06207   1.07436   1.08565
 Alpha virt. eigenvalues --    1.09624   1.09903   1.10179   1.10736   1.11470
 Alpha virt. eigenvalues --    1.12380   1.13613   1.14518   1.14933   1.15187
 Alpha virt. eigenvalues --    1.18272   1.18612   1.18703   1.19434   1.20555
 Alpha virt. eigenvalues --    1.21320   1.22365   1.22548   1.24521   1.25017
 Alpha virt. eigenvalues --    1.25798   1.28175   1.29359   1.30415   1.31790
 Alpha virt. eigenvalues --    1.32853   1.33349   1.33780   1.34146   1.35175
 Alpha virt. eigenvalues --    1.37205   1.37761   1.38283   1.40846   1.41895
 Alpha virt. eigenvalues --    1.43588   1.45342   1.45860   1.46511   1.46742
 Alpha virt. eigenvalues --    1.49722   1.50112   1.50147   1.50557   1.51498
 Alpha virt. eigenvalues --    1.51770   1.53247   1.53585   1.54520   1.55178
 Alpha virt. eigenvalues --    1.57932   1.60971   1.61518   1.61978   1.63243
 Alpha virt. eigenvalues --    1.64553   1.65503   1.65542   1.66460   1.66658
 Alpha virt. eigenvalues --    1.67607   1.68257   1.69149   1.70659   1.71517
 Alpha virt. eigenvalues --    1.74240   1.74759   1.77612   1.78901   1.80204
 Alpha virt. eigenvalues --    1.80346   1.80850   1.81495   1.82947   1.84854
 Alpha virt. eigenvalues --    1.85008   1.87327   1.87624   1.89201   1.89244
 Alpha virt. eigenvalues --    1.90204   1.91852   1.92953   1.93894   1.94873
 Alpha virt. eigenvalues --    1.95256   1.97719   1.98695   1.99779   2.01594
 Alpha virt. eigenvalues --    2.05265   2.06255   2.07824   2.09180   2.09194
 Alpha virt. eigenvalues --    2.10855   2.11911   2.12695   2.14457   2.14468
 Alpha virt. eigenvalues --    2.16332   2.18518   2.21618   2.22706   2.23595
 Alpha virt. eigenvalues --    2.25333   2.25524   2.29552   2.30032   2.31329
 Alpha virt. eigenvalues --    2.33175   2.35111   2.35670   2.37268   2.40001
 Alpha virt. eigenvalues --    2.41175   2.41876   2.43968   2.47046   2.47273
 Alpha virt. eigenvalues --    2.47590   2.48652   2.52288   2.55304   2.56323
 Alpha virt. eigenvalues --    2.57301   2.59589   2.62602   2.66914   2.68008
 Alpha virt. eigenvalues --    2.69057   2.70468   2.71178   2.71960   2.73495
 Alpha virt. eigenvalues --    2.76045   2.77261   2.79290   2.80229   2.82881
 Alpha virt. eigenvalues --    2.84359   2.85362   2.86098   2.89982   2.90584
 Alpha virt. eigenvalues --    2.92653   2.94230   2.94580   2.96004   2.96300
 Alpha virt. eigenvalues --    2.98486   2.98832   3.00706   3.05226   3.05419
 Alpha virt. eigenvalues --    3.06825   3.07668   3.09138   3.09866   3.11633
 Alpha virt. eigenvalues --    3.12780   3.13367   3.13573   3.14507   3.15326
 Alpha virt. eigenvalues --    3.17072   3.18695   3.20147   3.20553   3.21595
 Alpha virt. eigenvalues --    3.24319   3.26746   3.26889   3.27830   3.28498
 Alpha virt. eigenvalues --    3.31096   3.32331   3.35011   3.35828   3.36324
 Alpha virt. eigenvalues --    3.37639   3.38521   3.39343   3.43570   3.44959
 Alpha virt. eigenvalues --    3.45320   3.46568   3.47271   3.48180   3.49058
 Alpha virt. eigenvalues --    3.50599   3.52842   3.53996   3.55224   3.56304
 Alpha virt. eigenvalues --    3.56977   3.57062   3.58292   3.60450   3.60665
 Alpha virt. eigenvalues --    3.63557   3.63885   3.65058   3.66526   3.67796
 Alpha virt. eigenvalues --    3.71295   3.73565   3.75763   3.76799   3.77666
 Alpha virt. eigenvalues --    3.77971   3.80884   3.82384   3.83064   3.83452
 Alpha virt. eigenvalues --    3.85653   3.86837   3.87267   3.88521   3.90482
 Alpha virt. eigenvalues --    3.90711   3.94903   3.95083   3.96429   3.97532
 Alpha virt. eigenvalues --    3.97682   3.98327   3.99734   4.01402   4.01820
 Alpha virt. eigenvalues --    4.03810   4.05474   4.06418   4.09172   4.10776
 Alpha virt. eigenvalues --    4.12489   4.14374   4.14474   4.16246   4.18978
 Alpha virt. eigenvalues --    4.21791   4.23141   4.23201   4.24774   4.26989
 Alpha virt. eigenvalues --    4.29739   4.30433   4.31639   4.35851   4.38005
 Alpha virt. eigenvalues --    4.40811   4.41826   4.42366   4.43407   4.48694
 Alpha virt. eigenvalues --    4.50730   4.51822   4.56846   4.57078   4.59133
 Alpha virt. eigenvalues --    4.61591   4.63631   4.65252   4.66389   4.67076
 Alpha virt. eigenvalues --    4.68083   4.69643   4.74944   4.75478   4.75946
 Alpha virt. eigenvalues --    4.77797   4.78060   4.79026   4.84372   4.84919
 Alpha virt. eigenvalues --    4.86361   4.86435   4.89872   4.93273   5.00587
 Alpha virt. eigenvalues --    5.00969   5.03148   5.03250   5.04997   5.05209
 Alpha virt. eigenvalues --    5.06610   5.08160   5.13270   5.13787   5.15968
 Alpha virt. eigenvalues --    5.24354   5.27741   5.33943   5.39501   5.41566
 Alpha virt. eigenvalues --    5.45597   5.49529   5.53512   5.57105   5.73876
 Alpha virt. eigenvalues --    5.76498   5.81871   5.84252   5.88592   5.90178
 Alpha virt. eigenvalues --    5.97786   6.01858   6.09264   6.18910   6.23917
 Alpha virt. eigenvalues --    6.25756   6.29378   6.36976   6.38847   6.43256
 Alpha virt. eigenvalues --    6.45948   6.51572   6.54712   6.55013   6.62947
 Alpha virt. eigenvalues --    6.65368   6.71447   6.75169   6.79837   6.82413
 Alpha virt. eigenvalues --    6.87014   6.87420   6.91109   7.00794   7.05820
 Alpha virt. eigenvalues --    7.08097   7.10188   7.13877   7.18563   7.33127
 Alpha virt. eigenvalues --    7.40232   7.52242   7.70111   7.89126   8.04156
 Alpha virt. eigenvalues --    8.42620   8.50479   8.70519   8.74021   8.82774
 Alpha virt. eigenvalues --    8.83381   8.89075   8.99643   9.01423   9.06825
 Alpha virt. eigenvalues --    9.36009   9.38635  15.40098  15.72156  15.82926
 Alpha virt. eigenvalues --   16.95258  17.76241  18.08939  18.91024  19.95659
 Alpha virt. eigenvalues --   20.08747  20.70643
          Condensed to atoms (all electrons):
               1          2          3          4          5          6
     1  C    7.896430   0.013908   0.080307  -0.201420   0.174024  -0.810229
     2  C    0.013908   6.574944   0.015732  -0.001432  -0.248505   0.038754
     3  C    0.080307   0.015732   6.278862  -0.018517  -0.005447  -0.133270
     4  C   -0.201420  -0.001432  -0.018517   6.680125   0.035186  -0.050358
     5  C    0.174024  -0.248505  -0.005447   0.035186   7.700596  -0.604876
     6  C   -0.810229   0.038754  -0.133270  -0.050358  -0.604876   6.829925
     7  C   -0.414880   0.037106   0.039740   0.127707  -0.619685  -0.406740
     8  O    0.016522  -0.029153  -0.003388  -0.011084   0.055019  -0.207434
     9  O    0.027063  -0.006824  -0.000071  -0.019671   0.009838  -0.074845
    10  F    0.015379  -0.132091   0.175626  -0.136337  -0.002812   0.021834
    11  H    0.619090  -0.634124   0.058266   0.019572   0.033239  -0.452320
    12  H   -0.551163   0.711108  -0.609019  -0.008260   0.024878   0.002925
    13  H    0.023196  -0.019058  -0.636624   0.707992  -0.481677  -0.012902
    14  H    0.045544  -0.000596   0.081116  -0.621327   0.559196  -0.412442
    15  H   -0.020853   0.001922   0.000542   0.004501  -0.017603   0.036685
               7          8          9         10         11         12
     1  C   -0.414880   0.016522   0.027063   0.015379   0.619090  -0.551163
     2  C    0.037106  -0.029153  -0.006824  -0.132091  -0.634124   0.711108
     3  C    0.039740  -0.003388  -0.000071   0.175626   0.058266  -0.609019
     4  C    0.127707  -0.011084  -0.019671  -0.136337   0.019572  -0.008260
     5  C   -0.619685   0.055019   0.009838  -0.002812   0.033239   0.024878
     6  C   -0.406740  -0.207434  -0.074845   0.021834  -0.452320   0.002925
     7  C    6.844142  -0.025113   0.040855   0.005589   0.150269  -0.033291
     8  O   -0.025113   9.305751  -0.099995   0.000319   0.014530  -0.004830
     9  O    0.040855  -0.099995   8.599867   0.000396   0.000629  -0.000287
    10  F    0.005589   0.000319   0.000396   9.570557   0.010619  -0.004572
    11  H    0.150269   0.014530   0.000629   0.010619   1.483476  -0.404611
    12  H   -0.033291  -0.004830  -0.000287  -0.004572  -0.404611   1.514740
    13  H   -0.008073  -0.000717  -0.004507   0.001630   0.002431  -0.008555
    14  H    0.018262   0.009505  -0.040339   0.008180  -0.005272   0.001848
    15  H    0.061199  -0.106474   0.145763  -0.000020  -0.002040   0.000031
              13         14         15
     1  C    0.023196   0.045544  -0.020853
     2  C   -0.019058  -0.000596   0.001922
     3  C   -0.636624   0.081116   0.000542
     4  C    0.707992  -0.621327   0.004501
     5  C   -0.481677   0.559196  -0.017603
     6  C   -0.012902  -0.412442   0.036685
     7  C   -0.008073   0.018262   0.061199
     8  O   -0.000717   0.009505  -0.106474
     9  O   -0.004507  -0.040339   0.145763
    10  F    0.001630   0.008180  -0.000020
    11  H    0.002431  -0.005272  -0.002040
    12  H   -0.008555   0.001848   0.000031
    13  H    1.511906  -0.409791   0.000851
    14  H   -0.409791   1.602898  -0.006983
    15  H    0.000851  -0.006983   0.597954
 Mulliken charges:
               1
     1  C   -0.912919
     2  C   -0.321689
     3  C    0.676144
     4  C   -0.506676
     5  C   -0.611371
     6  C    2.235293
     7  C    0.182913
     8  O   -0.913458
     9  O   -0.577871
    10  F   -0.534298
    11  H    0.106245
    12  H    0.369059
    13  H    0.333899
    14  H    0.170201
    15  H    0.304526
 Sum of Mulliken charges =   0.00000
 Mulliken charges with hydrogens summed into heavy atoms:
               1
     1  C   -0.806674
     2  C    0.047370
     3  C    0.676144
     4  C   -0.172776
     5  C   -0.441169
     6  C    2.235293
     7  C    0.182913
     8  O   -0.913458
     9  O   -0.273345
    10  F   -0.534298
 Electronic spatial extent (au):  <R**2>=           1508.0144
 Charge=              0.0000 electrons
 Dipole moment (field-independent basis, Debye):
    X=             -0.6762    Y=             -1.2346    Z=              0.0000  Tot=              1.4077
 Quadrupole moment (field-independent basis, Debye-Ang):
   XX=            -58.8675   YY=            -53.3720   ZZ=            -57.3398
   XY=             -5.6186   XZ=             -0.0003   YZ=             -0.0001
 Traceless Quadrupole moment (field-independent basis, Debye-Ang):
   XX=             -2.3411   YY=              3.1545   ZZ=             -0.8134
   XY=             -5.6186   XZ=             -0.0003   YZ=             -0.0001
 Octapole moment (field-independent basis, Debye-Ang**2):
  XXX=             36.8371  YYY=             -1.4827  ZZZ=              0.0001  XYY=            -18.6744
  XXY=            -19.5365  XXZ=             -0.0006  XZZ=             -0.1616  YZZ=             -0.0936
  YYZ=              0.0000  XYZ=             -0.0006
 Hexadecapole moment (field-independent basis, Debye-Ang**3):
 XXXX=          -1286.4271 YYYY=           -344.9377 ZZZZ=            -57.4903 XXXY=            -83.8238
 XXXZ=             -0.0030 YYYX=             -5.2096 YYYZ=              0.0001 ZZZX=              0.0008
 ZZZY=              0.0004 XXYY=           -300.0097 XXZZ=           -235.6046 YYZZ=            -78.0882
 XXYZ=             -0.0006 YYXZ=              0.0004 ZZXY=              0.4058
 N-N= 4.991227208177D+02 E-N=-2.217794680191D+03  KE= 5.184071363276D+02
 ******************************Gaussian NBO Version 3.1******************************
             N A T U R A L   A T O M I C   O R B I T A L   A N D
          N A T U R A L   B O N D   O R B I T A L   A N A L Y S I S
 ******************************Gaussian NBO Version 3.1******************************
       /RESON  / : Allow strongly delocalized NBO set

 Analyzing the SCF density

 Job title: p-F                                                             

 Storage needed:    994295 in NPA,   1324496 in NBO (********** available)
 GSVD:  LWork=       -7209 too small for GESVD, short by      679196 words or      679196 for optimal perf.


 NATURAL POPULATIONS:  Natural atomic orbital occupancies 
                                                          
   NAO  Atom  No  lang   Type(AO)    Occupancy      Energy
 ----------------------------------------------------------
     1    C    1  S      Cor( 1S)     1.99911     -10.39858
     2    C    1  S      Val( 2S)     0.94326      -0.19620
     3    C    1  S      Ryd( 4S)     0.00153       1.89882
     4    C    1  S      Ryd( 5S)     0.00011       2.85480
     5    C    1  S      Ryd( 3S)     0.00002       1.74517
     6    C    1  px     Val( 2p)     1.06484      -0.07422
     7    C    1  px     Ryd( 5p)     0.00374       1.87265
     8    C    1  px     Ryd( 4p)     0.00008       1.86608
     9    C    1  px     Ryd( 3p)     0.00006       1.23104
    10    C    1  py     Val( 2p)     1.15059      -0.08218
    11    C    1  py     Ryd( 4p)     0.00467       1.81167
    12    C    1  py     Ryd( 5p)     0.00006       1.91338
    13    C    1  py     Ryd( 3p)     0.00004       1.53570
    14    C    1  pz     Val( 2p)     0.92744      -0.12999
    15    C    1  pz     Ryd( 4p)     0.00058       1.07716
    16    C    1  pz     Ryd( 5p)     0.00004       1.28465
    17    C    1  pz     Ryd( 3p)     0.00003       0.96758
    18    C    1  dxy    Ryd( 4d)     0.00166       2.91438
    19    C    1  dxy    Ryd( 5d)     0.00021       3.91321
    20    C    1  dxy    Ryd( 3d)     0.00007       2.50807
    21    C    1  dxz    Ryd( 3d)     0.00070       1.52894
    22    C    1  dxz    Ryd( 5d)     0.00001       3.06148
    23    C    1  dxz    Ryd( 4d)     0.00004       1.60186
    24    C    1  dyz    Ryd( 4d)     0.00032       1.47583
    25    C    1  dyz    Ryd( 5d)     0.00006       3.09956
    26    C    1  dyz    Ryd( 3d)     0.00003       1.30996
    27    C    1  dx2y2  Ryd( 4d)     0.00185       3.39144
    28    C    1  dx2y2  Ryd( 5d)     0.00025       4.12975
    29    C    1  dx2y2  Ryd( 3d)     0.00008       2.39986
    30    C    1  dz2    Ryd( 3d)     0.00088       1.99547
    31    C    1  dz2    Ryd( 4d)     0.00010       3.70240
    32    C    1  dz2    Ryd( 5d)     0.00009       3.80923
    33    C    1  f(0)   Ryd( 5f)     0.00011       3.43253
    34    C    1  f(0)   Ryd( 4f)     0.00003       2.22065
    35    C    1  f(C1)  Ryd( 5f)     0.00029       3.77063
    36    C    1  f(C1)  Ryd( 4f)     0.00003       3.18771
    37    C    1  f(S1)  Ryd( 5f)     0.00022       3.64687
    38    C    1  f(S1)  Ryd( 4f)     0.00003       2.83370
    39    C    1  f(C2)  Ryd( 5f)     0.00001       3.53869
    40    C    1  f(C2)  Ryd( 4f)     0.00004       2.42843
    41    C    1  f(S2)  Ryd( 5f)     0.00002       3.56950
    42    C    1  f(S2)  Ryd( 4f)     0.00001       2.21208
    43    C    1  f(C3)  Ryd( 4f)     0.00014       4.22033
    44    C    1  f(C3)  Ryd( 5f)     0.00004       6.04577
    45    C    1  f(S3)  Ryd( 5f)     0.00009       4.38486
    46    C    1  f(S3)  Ryd( 4f)     0.00010       3.97431
 
    47    C    2  S      Cor( 1S)     1.99902     -10.39285
    48    C    2  S      Val( 2S)     0.96131      -0.21197
    49    C    2  S      Ryd( 4S)     0.00146       1.84419
    50    C    2  S      Ryd( 5S)     0.00008       2.92481
    51    C    2  S      Ryd( 3S)     0.00002       1.69046
    52    C    2  px     Val( 2p)     1.11567      -0.09902
    53    C    2  px     Ryd( 5p)     0.00426       1.77877
    54    C    2  px     Ryd( 3p)     0.00014       1.36059
    55    C    2  px     Ryd( 4p)     0.00003       1.38924
    56    C    2  py     Val( 2p)     1.14434      -0.10572
    57    C    2  py     Ryd( 5p)     0.00333       1.82949
    58    C    2  py     Ryd( 4p)     0.00003       1.65783
    59    C    2  py     Ryd( 3p)     0.00005       1.59564
    60    C    2  pz     Val( 2p)     1.03633      -0.14457
    61    C    2  pz     Ryd( 5p)     0.00071       1.07112
    62    C    2  pz     Ryd( 3p)     0.00001       1.06272
    63    C    2  pz     Ryd( 4p)     0.00004       1.06815
    64    C    2  dxy    Ryd( 3d)     0.00258       2.27024
    65    C    2  dxy    Ryd( 5d)     0.00019       3.69035
    66    C    2  dxy    Ryd( 4d)     0.00007       2.83783
    67    C    2  dxz    Ryd( 3d)     0.00033       1.30231
    68    C    2  dxz    Ryd( 5d)     0.00002       3.11131
    69    C    2  dxz    Ryd( 4d)     0.00002       1.43189
    70    C    2  dyz    Ryd( 3d)     0.00074       1.27712
    71    C    2  dyz    Ryd( 5d)     0.00003       3.15308
    72    C    2  dyz    Ryd( 4d)     0.00003       1.30434
    73    C    2  dx2y2  Ryd( 4d)     0.00230       2.98499
    74    C    2  dx2y2  Ryd( 5d)     0.00020       3.89451
    75    C    2  dx2y2  Ryd( 3d)     0.00007       1.86549
    76    C    2  dz2    Ryd( 3d)     0.00101       1.76050
    77    C    2  dz2    Ryd( 5d)     0.00011       3.98901
    78    C    2  dz2    Ryd( 4d)     0.00008       3.25151
    79    C    2  f(0)   Ryd( 5f)     0.00014       3.49710
    80    C    2  f(0)   Ryd( 4f)     0.00001       2.00196
    81    C    2  f(C1)  Ryd( 5f)     0.00029       3.74943
    82    C    2  f(C1)  Ryd( 4f)     0.00002       2.68916
    83    C    2  f(S1)  Ryd( 5f)     0.00025       3.66561
    84    C    2  f(S1)  Ryd( 4f)     0.00003       2.62942
    85    C    2  f(C2)  Ryd( 5f)     0.00001       3.59214
    86    C    2  f(C2)  Ryd( 4f)     0.00004       2.16844
    87    C    2  f(S2)  Ryd( 5f)     0.00001       3.66424
    88    C    2  f(S2)  Ryd( 4f)     0.00001       2.15855
    89    C    2  f(C3)  Ryd( 4f)     0.00018       4.25432
    90    C    2  f(C3)  Ryd( 5f)     0.00006       5.38265
    91    C    2  f(S3)  Ryd( 5f)     0.00004       4.34254
    92    C    2  f(S3)  Ryd( 4f)     0.00014       3.63933
 
    93    C    3  S      Cor( 1S)     1.99828     -10.49545
    94    C    3  S      Val( 2S)     0.83700      -0.15724
    95    C    3  S      Ryd( 4S)     0.00179       2.39852
    96    C    3  S      Ryd( 3S)     0.00008       2.05323
    97    C    3  S      Ryd( 5S)     0.00002       2.85038
    98    C    3  px     Val( 2p)     0.67830      -0.05846
    99    C    3  px     Ryd( 4p)     0.00793       1.56273
   100    C    3  px     Ryd( 5p)     0.00005       1.99106
   101    C    3  px     Ryd( 3p)     0.00013       1.12498
   102    C    3  py     Val( 2p)     1.08666      -0.09697
   103    C    3  py     Ryd( 5p)     0.00380       1.76708
   104    C    3  py     Ryd( 4p)     0.00022       1.62033
   105    C    3  py     Ryd( 3p)     0.00004       0.89894
   106    C    3  pz     Val( 2p)     0.94126      -0.14860
   107    C    3  pz     Ryd( 4p)     0.00083       1.10066
   108    C    3  pz     Ryd( 5p)     0.00036       1.36619
   109    C    3  pz     Ryd( 3p)     0.00004       0.56750
   110    C    3  dxy    Ryd( 5d)     0.00238       3.50717
   111    C    3  dxy    Ryd( 3d)     0.00007       3.29841
   112    C    3  dxy    Ryd( 4d)     0.00006       3.36505
   113    C    3  dxz    Ryd( 3d)     0.00278       1.68558
   114    C    3  dxz    Ryd( 5d)     0.00004       2.58430
   115    C    3  dxz    Ryd( 4d)     0.00003       1.77892
   116    C    3  dyz    Ryd( 3d)     0.00090       1.71442
   117    C    3  dyz    Ryd( 5d)     0.00001       2.38043
   118    C    3  dyz    Ryd( 4d)     0.00000       1.77832
   119    C    3  dx2y2  Ryd( 3d)     0.00088       2.57479
   120    C    3  dx2y2  Ryd( 4d)     0.00033       3.05266
   121    C    3  dx2y2  Ryd( 5d)     0.00007       3.16746
   122    C    3  dz2    Ryd( 3d)     0.00055       2.37822
   123    C    3  dz2    Ryd( 5d)     0.00028       3.47954
   124    C    3  dz2    Ryd( 4d)     0.00016       2.79834
   125    C    3  f(0)   Ryd( 5f)     0.00026       3.55496
   126    C    3  f(0)   Ryd( 4f)     0.00001       2.07622
   127    C    3  f(C1)  Ryd( 5f)     0.00019       3.62230
   128    C    3  f(C1)  Ryd( 4f)     0.00002       2.69362
   129    C    3  f(S1)  Ryd( 5f)     0.00023       3.80117
   130    C    3  f(S1)  Ryd( 4f)     0.00004       2.61947
   131    C    3  f(C2)  Ryd( 5f)     0.00014       3.72368
   132    C    3  f(C2)  Ryd( 4f)     0.00006       2.21184
   133    C    3  f(S2)  Ryd( 5f)     0.00001       3.48584
   134    C    3  f(S2)  Ryd( 4f)     0.00000       2.45597
   135    C    3  f(C3)  Ryd( 4f)     0.00010       4.35061
   136    C    3  f(C3)  Ryd( 5f)     0.00007       6.07790
   137    C    3  f(S3)  Ryd( 5f)     0.00020       4.52228
   138    C    3  f(S3)  Ryd( 4f)     0.00009       3.83560
 
   139    C    4  S      Cor( 1S)     1.99901     -10.39221
   140    C    4  S      Val( 2S)     0.95978      -0.20795
   141    C    4  S      Ryd( 3S)     0.00153       1.80884
   142    C    4  S      Ryd( 5S)     0.00009       2.86775
   143    C    4  S      Ryd( 4S)     0.00002       1.83682
   144    C    4  px     Val( 2p)     1.10832      -0.09819
   145    C    4  px     Ryd( 5p)     0.00420       1.77791
   146    C    4  px     Ryd( 4p)     0.00016       1.48428
   147    C    4  px     Ryd( 3p)     0.00004       1.21665
   148    C    4  py     Val( 2p)     1.15199      -0.10690
   149    C    4  py     Ryd( 4p)     0.00346       1.82741
   150    C    4  py     Ryd( 5p)     0.00003       1.87759
   151    C    4  py     Ryd( 3p)     0.00005       1.46302
   152    C    4  pz     Val( 2p)     1.03885      -0.14466
   153    C    4  pz     Ryd( 4p)     0.00084       1.04932
   154    C    4  pz     Ryd( 5p)     0.00001       1.24941
   155    C    4  pz     Ryd( 3p)     0.00004       0.92820
   156    C    4  dxy    Ryd( 3d)     0.00255       2.53291
   157    C    4  dxy    Ryd( 5d)     0.00021       3.76707
   158    C    4  dxy    Ryd( 4d)     0.00007       2.84248
   159    C    4  dxz    Ryd( 3d)     0.00027       1.38316
   160    C    4  dxz    Ryd( 5d)     0.00003       3.04654
   161    C    4  dxz    Ryd( 4d)     0.00003       1.55801
   162    C    4  dyz    Ryd( 3d)     0.00069       1.32576
   163    C    4  dyz    Ryd( 5d)     0.00003       3.07889
   164    C    4  dyz    Ryd( 4d)     0.00003       1.42286
   165    C    4  dx2y2  Ryd( 4d)     0.00213       3.00998
   166    C    4  dx2y2  Ryd( 5d)     0.00023       3.92940
   167    C    4  dx2y2  Ryd( 3d)     0.00008       2.07909
   168    C    4  dz2    Ryd( 3d)     0.00105       1.77461
   169    C    4  dz2    Ryd( 5d)     0.00011       4.00325
   170    C    4  dz2    Ryd( 4d)     0.00010       3.36573
   171    C    4  f(0)   Ryd( 5f)     0.00016       3.46491
   172    C    4  f(0)   Ryd( 4f)     0.00002       2.13585
   173    C    4  f(C1)  Ryd( 5f)     0.00028       3.74214
   174    C    4  f(C1)  Ryd( 4f)     0.00002       2.74690
   175    C    4  f(S1)  Ryd( 5f)     0.00025       3.65019
   176    C    4  f(S1)  Ryd( 4f)     0.00002       2.82008
   177    C    4  f(C2)  Ryd( 5f)     0.00001       3.57962
   178    C    4  f(C2)  Ryd( 4f)     0.00004       2.24265
   179    C    4  f(S2)  Ryd( 5f)     0.00002       3.63083
   180    C    4  f(S2)  Ryd( 4f)     0.00001       2.34254
   181    C    4  f(C3)  Ryd( 4f)     0.00017       4.20608
   182    C    4  f(C3)  Ryd( 5f)     0.00005       5.90126
   183    C    4  f(S3)  Ryd( 5f)     0.00008       4.35977
   184    C    4  f(S3)  Ryd( 4f)     0.00011       3.85463
 
   185    C    5  S      Cor( 1S)     1.99912     -10.39882
   186    C    5  S      Val( 2S)     0.94130      -0.19742
   187    C    5  S      Ryd( 3S)     0.00135       1.97742
   188    C    5  S      Ryd( 5S)     0.00011       2.85392
   189    C    5  S      Ryd( 4S)     0.00002       2.12002
   190    C    5  px     Val( 2p)     1.07870      -0.08126
   191    C    5  px     Ryd( 4p)     0.00365       1.96180
   192    C    5  px     Ryd( 5p)     0.00010       2.65621
   193    C    5  px     Ryd( 3p)     0.00007       0.81935
   194    C    5  py     Val( 2p)     1.13920      -0.08145
   195    C    5  py     Ryd( 4p)     0.00448       1.81865
   196    C    5  py     Ryd( 5p)     0.00007       2.43982
   197    C    5  py     Ryd( 3p)     0.00005       1.12722
   198    C    5  pz     Val( 2p)     0.94082      -0.13366
   199    C    5  pz     Ryd( 4p)     0.00065       1.03635
   200    C    5  pz     Ryd( 5p)     0.00007       1.68765
   201    C    5  pz     Ryd( 3p)     0.00003       0.56355
   202    C    5  dxy    Ryd( 3d)     0.00174       2.67118
   203    C    5  dxy    Ryd( 5d)     0.00015       3.97807
   204    C    5  dxy    Ryd( 4d)     0.00008       2.97369
   205    C    5  dxz    Ryd( 3d)     0.00078       1.44666
   206    C    5  dxz    Ryd( 5d)     0.00003       3.17950
   207    C    5  dxz    Ryd( 4d)     0.00006       1.67614
   208    C    5  dyz    Ryd( 3d)     0.00033       1.29682
   209    C    5  dyz    Ryd( 5d)     0.00008       3.20128
   210    C    5  dyz    Ryd( 4d)     0.00003       1.37919
   211    C    5  dx2y2  Ryd( 4d)     0.00201       3.47874
   212    C    5  dx2y2  Ryd( 5d)     0.00027       4.22442
   213    C    5  dx2y2  Ryd( 3d)     0.00008       2.44400
   214    C    5  dz2    Ryd( 3d)     0.00096       1.91228
   215    C    5  dz2    Ryd( 4d)     0.00012       3.86474
   216    C    5  dz2    Ryd( 5d)     0.00009       4.47506
   217    C    5  f(0)   Ryd( 4f)     0.00011       1.48805
   218    C    5  f(0)   Ryd( 5f)     0.00009       3.32838
   219    C    5  f(C1)  Ryd( 4f)     0.00054       2.02038
   220    C    5  f(C1)  Ryd( 5f)     0.00022       3.57361
   221    C    5  f(S1)  Ryd( 4f)     0.00054       1.81102
   222    C    5  f(S1)  Ryd( 5f)     0.00017       3.45123
   223    C    5  f(C2)  Ryd( 4f)     0.00035       1.57135
   224    C    5  f(C2)  Ryd( 5f)     0.00005       3.34220
   225    C    5  f(S2)  Ryd( 4f)     0.00017       1.52967
   226    C    5  f(S2)  Ryd( 5f)     0.00003       3.36174
   227    C    5  f(C3)  Ryd( 4f)     0.00042       2.73636
   228    C    5  f(C3)  Ryd( 5f)     0.00012       3.96578
   229    C    5  f(S3)  Ryd( 4f)     0.00109       2.05974
   230    C    5  f(S3)  Ryd( 5f)     0.00024       4.20406
 
   231    C    6  S      Cor( 1S)     1.99884     -10.37680
   232    C    6  S      Val( 2S)     0.88610      -0.12601
   233    C    6  S      Ryd( 3S)     0.00112       2.08489
   234    C    6  S      Ryd( 4S)     0.00008       2.69855
   235    C    6  S      Ryd( 5S)     0.00003       3.78102
   236    C    6  px     Val( 2p)     1.10464      -0.11573
   237    C    6  px     Ryd( 5p)     0.00568       2.30495
   238    C    6  px     Ryd( 4p)     0.00008       2.18592
   239    C    6  px     Ryd( 3p)     0.00006       1.03582
   240    C    6  py     Val( 2p)     1.14026      -0.11475
   241    C    6  py     Ryd( 5p)     0.00502       2.10912
   242    C    6  py     Ryd( 4p)     0.00007       2.08637
   243    C    6  py     Ryd( 3p)     0.00004       1.13906
   244    C    6  pz     Val( 2p)     1.08535      -0.14384
   245    C    6  pz     Ryd( 4p)     0.00120       0.93534
   246    C    6  pz     Ryd( 5p)     0.00013       1.80364
   247    C    6  pz     Ryd( 3p)     0.00002       0.67819
   248    C    6  dxy    Ryd( 3d)     0.00071       2.95375
   249    C    6  dxy    Ryd( 4d)     0.00042       3.78577
   250    C    6  dxy    Ryd( 5d)     0.00009       5.57993
   251    C    6  dxz    Ryd( 3d)     0.00027       1.46899
   252    C    6  dxz    Ryd( 5d)     0.00013       3.08728
   253    C    6  dxz    Ryd( 4d)     0.00014       2.04629
   254    C    6  dyz    Ryd( 3d)     0.00060       1.20228
   255    C    6  dyz    Ryd( 5d)     0.00012       2.98825
   256    C    6  dyz    Ryd( 4d)     0.00004       2.37662
   257    C    6  dx2y2  Ryd( 3d)     0.00285       2.84637
   258    C    6  dx2y2  Ryd( 4d)     0.00021       3.81262
   259    C    6  dx2y2  Ryd( 5d)     0.00003       4.92857
   260    C    6  dz2    Ryd( 3d)     0.00115       1.66708
   261    C    6  dz2    Ryd( 4d)     0.00018       4.06445
   262    C    6  dz2    Ryd( 5d)     0.00009       4.47672
   263    C    6  f(0)   Ryd( 4f)     0.00054       1.53750
   264    C    6  f(0)   Ryd( 5f)     0.00024       3.40676
   265    C    6  f(C1)  Ryd( 4f)     0.00037       1.93995
   266    C    6  f(C1)  Ryd( 5f)     0.00055       3.58515
   267    C    6  f(S1)  Ryd( 4f)     0.00078       1.84572
   268    C    6  f(S1)  Ryd( 5f)     0.00031       3.59245
   269    C    6  f(C2)  Ryd( 4f)     0.00070       1.51249
   270    C    6  f(C2)  Ryd( 5f)     0.00006       3.35204
   271    C    6  f(S2)  Ryd( 4f)     0.00073       1.45996
   272    C    6  f(S2)  Ryd( 5f)     0.00006       3.43418
   273    C    6  f(C3)  Ryd( 4f)     0.00124       2.35845
   274    C    6  f(C3)  Ryd( 5f)     0.00010       4.40361
   275    C    6  f(S3)  Ryd( 4f)     0.00194       2.52368
   276    C    6  f(S3)  Ryd( 5f)     0.00027       4.08791
 
   277    C    7  S      Cor( 1S)     1.99908     -10.53675
   278    C    7  S      Val( 2S)     0.77861      -0.10187
   279    C    7  S      Ryd( 4S)     0.00374       2.03275
   280    C    7  S      Ryd( 3S)     0.00017       1.92741
   281    C    7  S      Ryd( 5S)     0.00010       2.39158
   282    C    7  px     Val( 2p)     0.91549      -0.04709
   283    C    7  px     Ryd( 5p)     0.00591       1.61343
   284    C    7  px     Ryd( 3p)     0.00026       0.86418
   285    C    7  px     Ryd( 4p)     0.00001       1.57409
   286    C    7  py     Val( 2p)     0.72641      -0.02460
   287    C    7  py     Ryd( 4p)     0.01317       1.57867
   288    C    7  py     Ryd( 3p)     0.00007       0.81992
   289    C    7  py     Ryd( 5p)     0.00011       2.29149
   290    C    7  pz     Val( 2p)     0.75569      -0.12561
   291    C    7  pz     Ryd( 4p)     0.00058       1.12914
   292    C    7  pz     Ryd( 3p)     0.00007       0.50044
   293    C    7  pz     Ryd( 5p)     0.00003       1.26985
   294    C    7  dxy    Ryd( 5d)     0.00073       4.21315
   295    C    7  dxy    Ryd( 4d)     0.00009       3.47779
   296    C    7  dxy    Ryd( 3d)     0.00003       3.35565
   297    C    7  dxz    Ryd( 5d)     0.00063       3.25388
   298    C    7  dxz    Ryd( 4d)     0.00007       2.20248
   299    C    7  dxz    Ryd( 3d)     0.00006       1.54238
   300    C    7  dyz    Ryd( 5d)     0.00133       3.37212
   301    C    7  dyz    Ryd( 4d)     0.00004       2.39482
   302    C    7  dyz    Ryd( 3d)     0.00002       1.76055
   303    C    7  dx2y2  Ryd( 5d)     0.00158       4.25158
   304    C    7  dx2y2  Ryd( 4d)     0.00007       3.58543
   305    C    7  dx2y2  Ryd( 3d)     0.00005       2.27585
   306    C    7  dz2    Ryd( 5d)     0.00018       4.47665
   307    C    7  dz2    Ryd( 4d)     0.00015       3.50370
   308    C    7  dz2    Ryd( 3d)     0.00012       2.86898
   309    C    7  f(0)   Ryd( 5f)     0.00012       3.24659
   310    C    7  f(0)   Ryd( 4f)     0.00004       2.72618
   311    C    7  f(C1)  Ryd( 5f)     0.00018       3.60027
   312    C    7  f(C1)  Ryd( 4f)     0.00002       3.39870
   313    C    7  f(S1)  Ryd( 5f)     0.00007       3.49002
   314    C    7  f(S1)  Ryd( 4f)     0.00004       3.42933
   315    C    7  f(C2)  Ryd( 5f)     0.00002       3.18752
   316    C    7  f(C2)  Ryd( 4f)     0.00009       2.84675
   317    C    7  f(S2)  Ryd( 5f)     0.00002       3.42908
   318    C    7  f(S2)  Ryd( 4f)     0.00000       3.06957
   319    C    7  f(C3)  Ryd( 4f)     0.00007       4.67955
   320    C    7  f(C3)  Ryd( 5f)     0.00003       8.30011
   321    C    7  f(S3)  Ryd( 4f)     0.00009       4.23494
   322    C    7  f(S3)  Ryd( 5f)     0.00005       4.30323
 
   323    O    8  S      Cor( 1S)     1.99979     -19.32461
   324    O    8  S      Val( 2S)     1.70587      -0.99982
   325    O    8  S      Ryd( 4S)     0.00058       2.95439
   326    O    8  S      Ryd( 3S)     0.00022       1.42318
   327    O    8  S      Ryd( 5S)     0.00001       8.79038
   328    O    8  px     Val( 2p)     1.77235      -0.33857
   329    O    8  px     Ryd( 4p)     0.00112       1.23773
   330    O    8  px     Ryd( 3p)     0.00008       0.60363
   331    O    8  px     Ryd( 5p)     0.00003       4.85727
   332    O    8  py     Val( 2p)     1.64528      -0.33746
   333    O    8  py     Ryd( 4p)     0.00140       1.29809
   334    O    8  py     Ryd( 3p)     0.00015       0.60636
   335    O    8  py     Ryd( 5p)     0.00005       5.44992
   336    O    8  pz     Val( 2p)     1.45988      -0.28939
   337    O    8  pz     Ryd( 4p)     0.00082       0.87495
   338    O    8  pz     Ryd( 3p)     0.00003       0.49511
   339    O    8  pz     Ryd( 5p)     0.00000       4.18348
   340    O    8  dxy    Ryd( 3d)     0.00780       2.02708
   341    O    8  dxy    Ryd( 4d)     0.00015       3.01825
   342    O    8  dxy    Ryd( 5d)     0.00002       6.69610
   343    O    8  dxz    Ryd( 3d)     0.00208       1.42034
   344    O    8  dxz    Ryd( 4d)     0.00002       1.59818
   345    O    8  dxz    Ryd( 5d)     0.00001       6.53626
   346    O    8  dyz    Ryd( 3d)     0.00504       1.50744
   347    O    8  dyz    Ryd( 4d)     0.00005       1.63433
   348    O    8  dyz    Ryd( 5d)     0.00003       6.50949
   349    O    8  dx2y2  Ryd( 3d)     0.00588       1.83881
   350    O    8  dx2y2  Ryd( 4d)     0.00007       2.05245
   351    O    8  dx2y2  Ryd( 5d)     0.00005       6.59121
   352    O    8  dz2    Ryd( 3d)     0.00280       1.62093
   353    O    8  dz2    Ryd( 4d)     0.00009       2.43117
   354    O    8  dz2    Ryd( 5d)     0.00001       6.63062
   355    O    8  f(0)   Ryd( 4f)     0.00013       3.08222
   356    O    8  f(0)   Ryd( 5f)     0.00000       5.55037
   357    O    8  f(C1)  Ryd( 4f)     0.00008       3.23479
   358    O    8  f(C1)  Ryd( 5f)     0.00001       5.63035
   359    O    8  f(S1)  Ryd( 4f)     0.00011       3.48213
   360    O    8  f(S1)  Ryd( 5f)     0.00001       5.79199
   361    O    8  f(C2)  Ryd( 4f)     0.00010       3.05224
   362    O    8  f(C2)  Ryd( 5f)     0.00002       5.74435
   363    O    8  f(S2)  Ryd( 4f)     0.00030       3.12965
   364    O    8  f(S2)  Ryd( 5f)     0.00001       5.63477
   365    O    8  f(C3)  Ryd( 4f)     0.00039       3.88042
   366    O    8  f(C3)  Ryd( 5f)     0.00001       6.09417
   367    O    8  f(S3)  Ryd( 4f)     0.00045       3.55942
   368    O    8  f(S3)  Ryd( 5f)     0.00003       5.96512
 
   369    O    9  S      Cor( 1S)     1.99978     -19.45755
   370    O    9  S      Val( 2S)     1.67653      -1.03416
   371    O    9  S      Ryd( 3S)     0.00047       1.43424
   372    O    9  S      Ryd( 4S)     0.00008       2.54242
   373    O    9  S      Ryd( 5S)     0.00001       9.59108
   374    O    9  px     Val( 2p)     1.46940      -0.35915
   375    O    9  px     Ryd( 4p)     0.00069       1.13916
   376    O    9  px     Ryd( 3p)     0.00011       0.62043
   377    O    9  px     Ryd( 5p)     0.00004       5.26584
   378    O    9  py     Val( 2p)     1.69132      -0.40245
   379    O    9  py     Ryd( 4p)     0.00081       0.99154
   380    O    9  py     Ryd( 3p)     0.00015       0.53524
   381    O    9  py     Ryd( 5p)     0.00008       5.05019
   382    O    9  pz     Val( 2p)     1.84690      -0.41235
   383    O    9  pz     Ryd( 4p)     0.00123       0.75354
   384    O    9  pz     Ryd( 3p)     0.00002       0.50170
   385    O    9  pz     Ryd( 5p)     0.00001       4.15235
   386    O    9  dxy    Ryd( 3d)     0.00617       1.95772
   387    O    9  dxy    Ryd( 4d)     0.00018       2.43742
   388    O    9  dxy    Ryd( 5d)     0.00003       6.79826
   389    O    9  dxz    Ryd( 3d)     0.00038       1.14889
   390    O    9  dxz    Ryd( 4d)     0.00006       1.90791
   391    O    9  dxz    Ryd( 5d)     0.00001       6.50446
   392    O    9  dyz    Ryd( 3d)     0.00484       1.28903
   393    O    9  dyz    Ryd( 4d)     0.00003       1.69068
   394    O    9  dyz    Ryd( 5d)     0.00004       6.50667
   395    O    9  dx2y2  Ryd( 3d)     0.00397       1.74980
   396    O    9  dx2y2  Ryd( 4d)     0.00007       2.06826
   397    O    9  dx2y2  Ryd( 5d)     0.00007       6.87779
   398    O    9  dz2    Ryd( 3d)     0.00300       1.49660
   399    O    9  dz2    Ryd( 4d)     0.00014       2.30060
   400    O    9  dz2    Ryd( 5d)     0.00001       6.73427
   401    O    9  f(0)   Ryd( 4f)     0.00056       2.74131
   402    O    9  f(0)   Ryd( 5f)     0.00001       5.95301
   403    O    9  f(C1)  Ryd( 4f)     0.00027       3.30982
   404    O    9  f(C1)  Ryd( 5f)     0.00001       6.21155
   405    O    9  f(S1)  Ryd( 4f)     0.00014       3.25411
   406    O    9  f(S1)  Ryd( 5f)     0.00001       6.12548
   407    O    9  f(C2)  Ryd( 4f)     0.00006       2.80068
   408    O    9  f(C2)  Ryd( 5f)     0.00001       6.11141
   409    O    9  f(S2)  Ryd( 4f)     0.00009       2.82182
   410    O    9  f(S2)  Ryd( 5f)     0.00001       5.98129
   411    O    9  f(C3)  Ryd( 4f)     0.00009       4.33502
   412    O    9  f(C3)  Ryd( 5f)     0.00005       6.53305
   413    O    9  f(S3)  Ryd( 4f)     0.00009       3.76255
   414    O    9  f(S3)  Ryd( 5f)     0.00002       6.45731
 
   415    F   10  S      Cor( 1S)     1.99993     -25.01070
   416    F   10  S      Val( 2S)     1.81800      -1.41354
   417    F   10  S      Ryd( 3S)     0.00088       1.81578
   418    F   10  S      Ryd( 5S)     0.00003       7.90484
   419    F   10  S      Ryd( 4S)     0.00000       4.52596
   420    F   10  px     Val( 2p)     1.60221      -0.49652
   421    F   10  px     Ryd( 3p)     0.00010       0.60837
   422    F   10  px     Ryd( 4p)     0.00022       1.39135
   423    F   10  px     Ryd( 5p)     0.00002       6.21293
   424    F   10  py     Val( 2p)     1.97006      -0.54044
   425    F   10  py     Ryd( 3p)     0.00161       0.77071
   426    F   10  py     Ryd( 4p)     0.00015       1.16825
   427    F   10  py     Ryd( 5p)     0.00001       5.04217
   428    F   10  pz     Val( 2p)     1.92352      -0.53409
   429    F   10  pz     Ryd( 3p)     0.00122       0.62063
   430    F   10  pz     Ryd( 4p)     0.00002       0.85177
   431    F   10  pz     Ryd( 5p)     0.00000       4.87910
   432    F   10  dxy    Ryd( 4d)     0.00064       3.29708
   433    F   10  dxy    Ryd( 3d)     0.00003       2.25637
   434    F   10  dxy    Ryd( 5d)     0.00001       9.04255
   435    F   10  dxz    Ryd( 4d)     0.00108       2.91051
   436    F   10  dxz    Ryd( 3d)     0.00003       2.13500
   437    F   10  dxz    Ryd( 5d)     0.00001       8.80104
   438    F   10  dyz    Ryd( 4d)     0.00000       2.56747
   439    F   10  dyz    Ryd( 3d)     0.00002       1.65360
   440    F   10  dyz    Ryd( 5d)     0.00000       8.57257
   441    F   10  dx2y2  Ryd( 4d)     0.00140       3.90553
   442    F   10  dx2y2  Ryd( 3d)     0.00009       3.76876
   443    F   10  dx2y2  Ryd( 5d)     0.00000       9.06212
   444    F   10  dz2    Ryd( 4d)     0.00049       3.06946
   445    F   10  dz2    Ryd( 3d)     0.00002       2.59441
   446    F   10  dz2    Ryd( 5d)     0.00000       8.75338
   447    F   10  f(0)   Ryd( 4f)     0.00005       3.53935
   448    F   10  f(0)   Ryd( 5f)     0.00001       7.82699
   449    F   10  f(C1)  Ryd( 4f)     0.00007       3.70409
   450    F   10  f(C1)  Ryd( 5f)     0.00001       8.11332
   451    F   10  f(S1)  Ryd( 4f)     0.00002       3.50634
   452    F   10  f(S1)  Ryd( 5f)     0.00001       7.75059
   453    F   10  f(C2)  Ryd( 4f)     0.00009       3.59401
   454    F   10  f(C2)  Ryd( 5f)     0.00002       7.94706
   455    F   10  f(S2)  Ryd( 4f)     0.00000       3.56431
   456    F   10  f(S2)  Ryd( 5f)     0.00000       8.03682
   457    F   10  f(C3)  Ryd( 4f)     0.00009       3.79951
   458    F   10  f(C3)  Ryd( 5f)     0.00002       8.21893
   459    F   10  f(S3)  Ryd( 4f)     0.00009       3.79299
   460    F   10  f(S3)  Ryd( 5f)     0.00004       8.20394
 
   461    H   11  S      Val( 1S)     0.75561       0.04637
   462    H   11  S      Ryd( 4S)     0.00043       1.96242
   463    H   11  S      Ryd( 2S)     0.00016       0.75952
   464    H   11  S      Ryd( 3S)     0.00004       1.53248
   465    H   11  px     Ryd( 2p)     0.00049       0.99907
   466    H   11  px     Ryd( 4p)     0.00009       4.07687
   467    H   11  px     Ryd( 3p)     0.00007       2.47712
   468    H   11  py     Ryd( 2p)     0.00088       0.90720
   469    H   11  py     Ryd( 4p)     0.00014       4.47128
   470    H   11  py     Ryd( 3p)     0.00007       3.60679
   471    H   11  pz     Ryd( 2p)     0.00015       0.64678
   472    H   11  pz     Ryd( 4p)     0.00005       3.77177
   473    H   11  pz     Ryd( 3p)     0.00006       1.75071
   474    H   11  dxy    Ryd( 3d)     0.00008       2.16429
   475    H   11  dxy    Ryd( 4d)     0.00002       4.40195
   476    H   11  dxz    Ryd( 3d)     0.00002       1.55619
   477    H   11  dxz    Ryd( 4d)     0.00000       3.58830
   478    H   11  dyz    Ryd( 3d)     0.00001       1.69478
   479    H   11  dyz    Ryd( 4d)     0.00001       3.90756
   480    H   11  dx2y2  Ryd( 3d)     0.00007       2.19930
   481    H   11  dx2y2  Ryd( 4d)     0.00004       4.44313
   482    H   11  dz2    Ryd( 3d)     0.00005       2.01638
   483    H   11  dz2    Ryd( 4d)     0.00003       3.85766
 
   484    H   12  S      Val( 1S)     0.76810       0.02224
   485    H   12  S      Ryd( 4S)     0.00036       2.01299
   486    H   12  S      Ryd( 2S)     0.00013       0.65807
   487    H   12  S      Ryd( 3S)     0.00003       1.40702
   488    H   12  px     Ryd( 2p)     0.00063       0.92856
   489    H   12  px     Ryd( 4p)     0.00009       4.15920
   490    H   12  px     Ryd( 3p)     0.00006       2.46084
   491    H   12  py     Ryd( 2p)     0.00047       0.99704
   492    H   12  py     Ryd( 4p)     0.00012       4.61980
   493    H   12  py     Ryd( 3p)     0.00006       3.11704
   494    H   12  pz     Ryd( 2p)     0.00032       0.69769
   495    H   12  pz     Ryd( 4p)     0.00005       3.67940
   496    H   12  pz     Ryd( 3p)     0.00004       1.66204
   497    H   12  dxy    Ryd( 3d)     0.00015       2.05602
   498    H   12  dxy    Ryd( 4d)     0.00002       4.35392
   499    H   12  dxz    Ryd( 3d)     0.00003       1.54676
   500    H   12  dxz    Ryd( 4d)     0.00001       3.59692
   501    H   12  dyz    Ryd( 3d)     0.00001       1.68529
   502    H   12  dyz    Ryd( 4d)     0.00001       3.83795
   503    H   12  dx2y2  Ryd( 3d)     0.00005       2.04003
   504    H   12  dx2y2  Ryd( 4d)     0.00001       4.44033
   505    H   12  dz2    Ryd( 3d)     0.00002       1.88909
   506    H   12  dz2    Ryd( 4d)     0.00003       3.81878
 
   507    H   13  S      Val( 1S)     0.76947       0.02139
   508    H   13  S      Ryd( 4S)     0.00039       2.00402
   509    H   13  S      Ryd( 2S)     0.00014       0.66286
   510    H   13  S      Ryd( 3S)     0.00003       1.42370
   511    H   13  px     Ryd( 2p)     0.00058       0.96065
   512    H   13  px     Ryd( 4p)     0.00009       4.14432
   513    H   13  px     Ryd( 3p)     0.00006       2.36180
   514    H   13  py     Ryd( 2p)     0.00055       1.06376
   515    H   13  py     Ryd( 4p)     0.00014       4.67452
   516    H   13  py     Ryd( 3p)     0.00005       3.24921
   517    H   13  pz     Ryd( 2p)     0.00033       0.73590
   518    H   13  pz     Ryd( 4p)     0.00005       3.70052
   519    H   13  pz     Ryd( 3p)     0.00004       1.61046
   520    H   13  dxy    Ryd( 3d)     0.00013       2.14340
   521    H   13  dxy    Ryd( 4d)     0.00003       4.35284
   522    H   13  dxz    Ryd( 3d)     0.00002       1.62207
   523    H   13  dxz    Ryd( 4d)     0.00001       3.49408
   524    H   13  dyz    Ryd( 3d)     0.00001       1.80095
   525    H   13  dyz    Ryd( 4d)     0.00001       3.79722
   526    H   13  dx2y2  Ryd( 3d)     0.00006       2.05759
   527    H   13  dx2y2  Ryd( 4d)     0.00001       4.40867
   528    H   13  dz2    Ryd( 3d)     0.00002       1.98646
   529    H   13  dz2    Ryd( 4d)     0.00003       3.76612
 
   530    H   14  S      Val( 1S)     0.76362       0.03736
   531    H   14  S      Ryd( 4S)     0.00043       1.95420
   532    H   14  S      Ryd( 2S)     0.00015       0.81127
   533    H   14  S      Ryd( 3S)     0.00003       1.53183
   534    H   14  px     Ryd( 2p)     0.00062       0.95911
   535    H   14  px     Ryd( 4p)     0.00010       4.16823
   536    H   14  px     Ryd( 3p)     0.00008       3.23821
   537    H   14  py     Ryd( 2p)     0.00079       0.89793
   538    H   14  py     Ryd( 4p)     0.00016       4.30341
   539    H   14  py     Ryd( 3p)     0.00005       3.96604
   540    H   14  pz     Ryd( 2p)     0.00022       0.58381
   541    H   14  pz     Ryd( 4p)     0.00003       3.93173
   542    H   14  pz     Ryd( 3p)     0.00007       2.05124
   543    H   14  dxy    Ryd( 3d)     0.00010       2.15296
   544    H   14  dxy    Ryd( 4d)     0.00003       4.51456
   545    H   14  dxz    Ryd( 3d)     0.00005       1.49754
   546    H   14  dxz    Ryd( 4d)     0.00001       3.81683
   547    H   14  dyz    Ryd( 3d)     0.00003       1.58434
   548    H   14  dyz    Ryd( 4d)     0.00001       4.02498
   549    H   14  dx2y2  Ryd( 3d)     0.00005       2.18597
   550    H   14  dx2y2  Ryd( 4d)     0.00004       4.57764
   551    H   14  dz2    Ryd( 3d)     0.00005       2.18026
   552    H   14  dz2    Ryd( 4d)     0.00002       4.19809
 
   553    H   15  S      Val( 1S)     0.49054       0.13418
   554    H   15  S      Ryd( 4S)     0.00120       1.80297
   555    H   15  S      Ryd( 3S)     0.00020       1.60946
   556    H   15  S      Ryd( 2S)     0.00007       0.53216
   557    H   15  px     Ryd( 2p)     0.00050       1.75795
   558    H   15  px     Ryd( 4p)     0.00033       4.59262
   559    H   15  px     Ryd( 3p)     0.00001       3.13610
   560    H   15  py     Ryd( 2p)     0.00029       1.32965
   561    H   15  py     Ryd( 4p)     0.00007       3.76634
   562    H   15  py     Ryd( 3p)     0.00001       2.76033
   563    H   15  pz     Ryd( 2p)     0.00062       1.04969
   564    H   15  pz     Ryd( 4p)     0.00007       3.48275
   565    H   15  pz     Ryd( 3p)     0.00001       2.45022
   566    H   15  dxy    Ryd( 3d)     0.00008       1.40956
   567    H   15  dxy    Ryd( 4d)     0.00001       4.40672
   568    H   15  dxz    Ryd( 3d)     0.00014       1.13907
   569    H   15  dxz    Ryd( 4d)     0.00000       4.22953
   570    H   15  dyz    Ryd( 3d)     0.00003       1.15719
   571    H   15  dyz    Ryd( 4d)     0.00000       3.79989
   572    H   15  dx2y2  Ryd( 3d)     0.00010       1.75859
   573    H   15  dx2y2  Ryd( 4d)     0.00001       4.57949
   574    H   15  dz2    Ryd( 3d)     0.00011       1.61119
   575    H   15  dz2    Ryd( 4d)     0.00001       4.02813

 WARNING:  1 low occupancy (<1.9990e) core orbital  found on  C    3
           1 low occupancy (<1.9990e) core orbital  found on  C    6

 WARNING:  Population inversion found on atom  C    1
           Population inversion found on atom  C    2
           Population inversion found on atom  C    3
           Population inversion found on atom  C    4
           Population inversion found on atom  C    5
           Population inversion found on atom  C    6
           Population inversion found on atom  C    7
           Population inversion found on atom  O    8
           Population inversion found on atom  O    9
           Population inversion found on atom  F   10
           Population inversion found on atom  H   11
           Population inversion found on atom  H   12
           Population inversion found on atom  H   13
           Population inversion found on atom  H   14
           Population inversion found on atom  H   15


 Summary of Natural Population Analysis:                  
                                                          
                                       Natural Population 
                Natural  -----------------------------------------------
    Atom  No    Charge         Core      Valence    Rydberg      Total
 -----------------------------------------------------------------------
      C    1   -0.10369      1.99911     4.08613    0.01845     6.10369
      C    2   -0.27587      1.99902     4.25765    0.01920     6.27587
      C    3    0.43326      1.99828     3.54322    0.02525     5.56674
      C    4   -0.27727      1.99901     4.25894    0.01932     6.27727
      C    5   -0.12070      1.99912     4.10001    0.02157     6.12070
      C    6   -0.24365      1.99884     4.21636    0.02846     6.24365
      C    7    0.79450      1.99908     3.17620    0.03022     5.20550
      O    8   -0.61345      1.99979     6.58338    0.03028     8.61345
      O    9   -0.70803      1.99978     6.68414    0.02411     8.70803
      F   10   -0.32234      1.99993     7.31380    0.00860     9.32234
      H   11    0.24142      0.00000     0.75561    0.00297     0.75858
      H   12    0.22919      0.00000     0.76810    0.00270     0.77081
      H   13    0.22775      0.00000     0.76947    0.00277     0.77225
      H   14    0.23328      0.00000     0.76362    0.00310     0.76672
      H   15    0.50559      0.00000     0.49054    0.00387     0.49441
 =======================================================================
   * Total *    0.00000     19.99194    51.76719    0.24087    72.00000

                                 Natural Population      
 --------------------------------------------------------
   Core                      19.99194 ( 99.9597% of  20)
   Valence                   51.76719 ( 99.5523% of  52)
   Natural Minimal Basis     71.75913 ( 99.6655% of  72)
   Natural Rydberg Basis      0.24087 (  0.3345% of  72)
 --------------------------------------------------------

    Atom  No          Natural Electron Configuration
 ----------------------------------------------------------------------------
      C    1      [core]2S( 0.94)2p( 3.14)4p( 0.01)
      C    2      [core]2S( 0.96)2p( 3.30)5p( 0.01)
      C    3      [core]2S( 0.84)2p( 2.71)3d( 0.01)4p( 0.01)
      C    4      [core]2S( 0.96)2p( 3.30)
      C    5      [core]2S( 0.94)2p( 3.16)4p( 0.01)
      C    6      [core]2S( 0.89)2p( 3.33)3d( 0.01)5p( 0.01)4f( 0.01)
      C    7      [core]2S( 0.78)2p( 2.40)4p( 0.01)5p( 0.01)
      O    8      [core]2S( 1.71)2p( 4.88)3d( 0.02)
      O    9      [core]2S( 1.68)2p( 5.01)3d( 0.02)
      F   10      [core]2S( 1.82)2p( 5.50)
      H   11            1S( 0.76)
      H   12            1S( 0.77)
      H   13            1S( 0.77)
      H   14            1S( 0.76)
      H   15            1S( 0.49)


 NATURAL BOND ORBITAL ANALYSIS:

                       Occupancies       Lewis Structure    Low   High
           Occ.    -------------------  -----------------   occ   occ
  Cycle   Thresh.   Lewis   Non-Lewis     CR  BD  3C  LP    (L)   (NL)   Dev
 =============================================================================
   1(1)    1.90    68.04490   3.95510     10  17   0   9     8      6    0.47
   2(2)    1.90    68.04490   3.95510     10  17   0   9     8      6    0.47
   3(1)    1.80    68.40729   3.59271     10  16   0  10     3      4    0.47
   4(2)    1.80    68.40729   3.59271     10  16   0  10     3      4    0.47
   5(1)    1.70    68.40729   3.59271     10  16   0  10     3      4    0.47
   6(2)    1.70    68.40729   3.59271     10  16   0  10     3      4    0.47
   7(1)    1.60    70.18977   1.81023     10  19   0   7     0      4    0.45
   8(2)    1.60    70.15941   1.84059     10  19   0   7     0      4    0.47
   9(3)    1.60    69.67307   2.32693     10  18   0   8     1      4    0.39
  10(4)    1.60    70.18977   1.81023     10  19   0   7     0      4    0.45
  11(5)    1.60    69.67307   2.32693     10  18   0   8     1      4    0.39
  12(6)    1.60    70.18977   1.81023     10  19   0   7     0      4    0.45
  13(7)    1.60    69.67307   2.32693     10  18   0   8     1      4    0.39
  14(8)    1.60    70.18977   1.81023     10  19   0   7     0      4    0.45
  15(9)    1.60    69.67307   2.32693     10  18   0   8     1      4    0.39
  16(1)    1.50    69.70164   2.29836     10  18   0   8     0      5    0.73
  17(2)    1.50    69.70164   2.29836     10  18   0   8     0      5    0.73
  18(1)    1.60    70.18977   1.81023     10  19   0   7     0      4    0.45
 -----------------------------------------------------------------------------

 Structure accepted: RESONANCE keyword permits strongly delocalized structure

 WARNING:  1 low occupancy (<1.9990e) core orbital  found on  C    3
           1 low occupancy (<1.9990e) core orbital  found on  C    6

 --------------------------------------------------------
   Core                     19.99197 ( 99.960% of  20)
   Valence Lewis            50.19780 ( 96.534% of  52)
  ==================       ============================
   Total Lewis              70.18977 ( 97.486% of  72)
  -----------------------------------------------------
   Valence non-Lewis         1.67457 (  2.326% of  72)
   Rydberg non-Lewis         0.13567 (  0.188% of  72)
  ==================       ============================
   Total non-Lewis           1.81023 (  2.514% of  72)
 --------------------------------------------------------


       (Occupancy)   Bond orbital/ Coefficients/ Hybrids
 ---------------------------------------------------------------------------------
     1. (1.97428) BD ( 1) C   1 - C   2  
                ( 49.38%)   0.7027* C   1 s( 36.14%)p 1.76( 63.70%)d 0.00(  0.13%)
                                                  f 0.00(  0.03%)
                                            0.0001  0.6009 -0.0178  0.0007  0.0007
                                           -0.7972  0.0183  0.0041 -0.0011 -0.0146
                                           -0.0300  0.0015  0.0000  0.0000  0.0000
                                            0.0000  0.0000  0.0115  0.0015  0.0031
                                            0.0000  0.0000  0.0000  0.0000  0.0000
                                            0.0000  0.0253  0.0054 -0.0025 -0.0222
                                            0.0001 -0.0029  0.0000  0.0000  0.0126
                                           -0.0010  0.0004  0.0005  0.0000  0.0000
                                            0.0000  0.0000 -0.0089  0.0006  0.0014
                                           -0.0051
                ( 50.62%)   0.7114* C   2 s( 37.69%)p 1.65( 62.14%)d 0.00(  0.14%)
                                                  f 0.00(  0.03%)
                                           -0.0002  0.6136 -0.0195  0.0002 -0.0003
                                            0.7863 -0.0174  0.0036 -0.0018  0.0453
                                           -0.0278  0.0020  0.0007  0.0000  0.0000
                                            0.0000  0.0000 -0.0091 -0.0015 -0.0038
                                            0.0000  0.0000  0.0000  0.0000  0.0000
[...]
 ! D26   D(1,6,7,9)           -180.0003         -DE/DX =    0.0                 !
 ! D27   D(5,6,7,8)           -179.9983         -DE/DX =    0.0                 !
 ! D28   D(5,6,7,9)             -0.0004         -DE/DX =    0.0                 !
 ! D29   D(6,7,9,15)          -179.9988         -DE/DX =    0.0                 !
 ! D30   D(8,7,9,15)            -0.0009         -DE/DX =    0.0                 !
 --------------------------------------------------------------------------------
 GradGradGradGradGradGradGradGradGradGradGradGradGradGradGradGradGradGrad


 ----------------------------------------------------------------------

 Electric dipole moment (input orientation):
 (Debye = 10**-18 statcoulomb cm , SI units = C m)
                  (au)            (Debye)         (10**-30 SI)
   Tot        0.551351D+00      0.140139D+01      0.467454D+01
   x          0.516460D+00      0.131271D+01      0.437873D+01
   y          0.979403D-01      0.248939D+00      0.830373D+00
   z         -0.166324D+00     -0.422754D+00     -0.141016D+01

 Dipole polarizability, Alpha (input orientation).
 (esu units = cm**3 , SI units = C**2 m**2 J**-1)
 Alpha(0;0):
               (au)            (10**-24 esu)      (10**-40 SI)
   iso        0.878037D+02      0.130112D+02      0.144769D+02
   aniso      0.585431D+02      0.867519D+01      0.965245D+01
   xx         0.918135D+02      0.136054D+02      0.151380D+02
   yx        -0.689676D+01     -0.102199D+01     -0.113712D+01
   yy         0.116273D+03      0.172298D+02      0.191708D+02
   zx        -0.115181D+02     -0.170681D+01     -0.189908D+01
   zy        -0.463501D+01     -0.686837D+00     -0.764210D+00
   zz         0.553250D+02      0.819832D+01      0.912186D+01

 ----------------------------------------------------------------------

 Dipole orientation:
     6         -0.05032170          0.49986290         -2.58252448
     6          0.54704487          3.04364266         -2.56732870
     6          0.82692720          4.23526956         -0.25761189
     6          0.53454598          2.99001861          2.01982682
     6         -0.06351787          0.44327780          1.97743747
     6         -0.35672926         -0.80511004         -0.31921006
     6         -0.99663028         -3.52997865         -0.45403219
     8         -1.27185136         -4.70203214         -2.37898886
     8         -1.24993121         -4.60887322          1.83805851
     9          1.40494515          6.69662841         -0.22649878
     1         -0.28842885         -0.51391268         -4.33976979
     1          0.79766855          4.11103034         -4.28897525
     1          0.77569278          4.01672774          3.76735710
     1         -0.30473985         -0.58405909          3.72423640
     1         -1.66210740         -6.36416471          1.55201362

 Electric dipole moment (dipole orientation):
 (Debye = 10**-18 statcoulomb cm , SI units = C m)
                  (au)            (Debye)         (10**-30 SI)
   Tot        0.551351D+00      0.140139D+01      0.467454D+01
   x          0.000000D+00      0.000000D+00      0.000000D+00
   y          0.000000D+00      0.000000D+00      0.000000D+00
   z          0.551351D+00      0.140139D+01      0.467454D+01

 Dipole polarizability, Alpha (dipole orientation).
 (esu units = cm**3 , SI units = C**2 m**2 J**-1)
 Alpha(0;0):
               (au)            (10**-24 esu)      (10**-40 SI)
   iso        0.878037D+02      0.130112D+02      0.144769D+02
   aniso      0.585431D+02      0.867519D+01      0.965245D+01
   xx         0.548487D+02      0.812774D+01      0.904334D+01
   yx         0.148472D+02      0.220012D+01      0.244797D+01
   yy         0.114587D+03      0.169800D+02      0.188928D+02
   zx         0.257899D+00      0.382167D-01      0.425218D-01
   zy         0.109491D+01      0.162249D+00      0.180527D+00
   zz         0.939758D+02      0.139258D+02      0.154945D+02

 ----------------------------------------------------------------------
 Unable to Open any file for archive entry.
 1\1\GINC-AE25\Freq\RM062X\Aug-CC-pVTZ\C7H5F1O2\DHUANG\02-Apr-2025\0\\#
 N Geom=AllCheck Guess=TCheck SCRF=Check GenChk RM062X/Aug-CC-pVTZ Freq
 \\p-F\\0,1\C,-1.2549969757,-0.4974607792,0.3403301177\C,-0.9723632758,
 -1.84991995,0.3948939934\C,0.3014194954,-2.2670313725,0.0529019775\C,1
 .2956619111,-1.3901862043,-0.3385325918\C,0.9992280663,-0.0387071674,-
 0.3888227061\C,-0.274214838,0.4098428994,-0.0501884797\C,-0.6357317878
 ,1.8474393447,-0.0897170613\O,-1.7166647487,2.2902967757,0.1913242765\
 O,0.3837667967,2.6371202496,-0.4797566362\F,0.5830308587,-3.5741274782
 ,0.1030816522\H,-2.2356893302,-0.1230754819,0.5981174627\H,-1.71033838
 72,-2.5798555721,0.6936251483\H,2.2729377555,-1.7723685778,-0.59447812
 19\H,1.7540017038,0.6722766382,-0.6906735713\H,0.052152756,3.544456675
 7,-0.4734054599\\Version=ES64L-G16RevC.01\State=1-A\HF=-520.0717662\RM
 SD=3.307e-09\RMSF=9.643e-05\ZeroPoint=0.108404\Thermal=0.1162762\ETot=
 -519.95549\HTot=-519.9545458\GTot=-519.9966198\Dipole=0.5164604,0.0979
 403,-0.1663242\DipoleDeriv=0.0298207,0.0806035,-0.0403409,-0.0656959,0
 .2168234,-0.0104514,-0.0251947,-0.0546887,-0.0627079,-0.1625401,0.3007
 179,-0.0232392,0.1194144,-0.2202292,-0.027433,-0.0044674,-0.0822568,-0
 .1265582,0.3939165,-0.2501036,-0.0544773,-0.2640117,1.5380188,-0.06614
 34,-0.0530368,-0.0703513,0.1514468,-0.0124104,-0.2189949,-0.0161601,-0
 .0113028,-0.3816264,0.0283484,-0.0376633,0.0911521,-0.1388861,0.069033
 8,-0.1526871,-0.0287581,-0.0177352,0.2075043,-0.0242338,-0.0427324,0.0
 165792,-0.0671429,-0.1803445,0.0949498,0.0275715,0.1029855,-0.6332508,
 0.0285559,0.0267373,0.0309892,-0.067952,1.5515413,-0.0612973,-0.360573
 1,-0.1102518,2.1462855,-0.1538643,-0.3555034,-0.1686613,0.4631396,-1.0
 762054,0.3335402,0.1782604,0.3802957,-1.016939,-0.0482793,0.1734328,-0
 .0341475,-0.4214208,-0.7898371,-0.4496552,0.1761633,-0.4460653,-1.0823
 852,0.2095539,0.1757817,0.2106304,-0.4362008,-0.2519572,0.2638803,0.00
 75855,0.2692759,-1.4206467,0.0515295,0.0070263,0.0531635,-0.1441486,0.
 0431011,0.0079333,0.0243985,0.0208139,0.1086796,-0.004448,0.023065,-0.
 000553,0.1195869,0.0566057,-0.0383609,0.0333727,-0.0284385,0.0278573,0
 .0216427,0.0323457,0.0246428,0.1415017,0.0231779,0.0406405,0.0353288,0
 .0305683,0.0564034,0.0008536,0.036371,-0.0021924,0.1431545,0.0540396,-
 0.0387908,0.0263642,-0.0368446,0.0783024,0.0162814,0.0261632,0.0168697
 ,0.118286,0.2520582,0.0876244,0.0145038,0.0569921,0.3752027,-0.0219121
 ,0.017675,-0.031176,0.3279016\Polar=91.8134737,-6.8967632,116.2727288,
 -11.5181112,-4.6350079,55.3250201\Quadrupole=0.4446064,0.3475201,-0.79
 21265,4.8084369,-1.0153452,-1.6212008\PG=C01 [X(C7H5F1O2)]\NImag=0\\0.
 69075844,-0.05248764,0.69960268,-0.15935743,-0.04146846,0.19827387,-0.
 13703494,0.00987902,0.02198936,0.67155873,0.08201664,-0.35010854,0.005
 13929,0.02436238,0.73691129,0.01452038,0.02695288,-0.06811515,-0.16674
 497,-0.07036259,0.18618285,0.01763101,0.10307049,-0.01590401,-0.308322
 76,-0.00344085,0.07262987,0.67271334,0.03675708,-0.00451573,-0.0106134
 9,0.08318344,-0.13201207,-0.01866228,-0.01036059,0.69315600,-0.0090380
 9,-0.03066600,0.00623592,0.06366089,0.00753209,-0.08934493,-0.15313044
 ,-0.05178298,0.21443038,-0.00821683,-0.02074205,0.00403881,-0.04208774
 ,0.00256311,0.01516411,-0.25136816,-0.13269909,0.06874636,0.70712502,-
 0.02399230,-0.06769943,0.01406128,-0.04918296,0.06525434,0.00904147,-0
 .04613451,-0.18752395,0.02617467,-0.05046627,0.70140151,0.00437537,0.0
 1307845,-0.00463976,0.02052176,-0.00660604,0.00341583,0.05978357,0.052
 35077,-0.09295828,-0.16989730,-0.04410902,0.18393581,-0.05101240,-0.05
 170408,0.02274498,-0.03489441,0.03906163,0.00596198,0.06624987,-0.0064
 4649,-0.01927932,-0.13815683,0.01316582,0.02194085,0.66258206,0.001493
 93,0.06465398,-0.00647274,0.03658234,-0.04250990,-0.00684747,-0.073294
 93,-0.05071066,0.02744366,0.08594709,-0.34329942,0.00322969,0.02448110
 ,0.71979423,0.01723690,0.00961375,0.00029383,0.00621869,-0.00759718,-0
 .00289729,-0.01235807,0.00722939,0.00327424,0.01440529,0.02523810,-0.0
 6805976,-0.15908301,-0.06692870,0.19991383,-0.22666806,-0.05752170,0.0
 5441434,0.05379093,-0.05751065,-0.00830275,-0.07683818,-0.01677222,0.0
 2329395,0.01266148,0.08535699,-0.01044688,-0.29333919,0.02351434,0.066
 62127,0.67022881,-0.12095767,-0.20087629,0.05049819,-0.00491546,-0.047
 64700,0.00710743,-0.01696760,0.00192456,0.00435708,0.03243137,-0.00935
 319,-0.00807847,0.08647921,-0.14204238,-0.01817046,-0.00781390,0.65653
 546,0.06098242,0.03131597,-0.08809835,-0.01374834,0.02301158,0.0084167
 5,0.02331423,0.00429804,-0.01304305,-0.00496721,-0.02408279,0.01133535
 ,0.06010201,0.00086959,-0.08323615,-0.15833113,-0.05070812,0.19708371,
 0.01726866,-0.01419591,-0.00352622,-0.00146410,-0.00837651,0.00358218,
 -0.00559701,0.00098912,0.00149403,-0.00589212,0.00265749,0.00394254,-0
 .00132664,0.02929767,-0.00296902,-0.10109611,0.01416264,0.00412745,0.8
 9425285,-0.00692441,-0.03562417,0.00585957,-0.00653233,0.00432552,0.00
 230535,0.00077512,-0.00825319,0.00058730,0.00172704,0.00869088,-0.0005
 8807,0.01876994,-0.01126050,-0.00462540,0.02504070,-0.20508241,0.00511
 082,-0.16238264,0.68750703,-0.00427943,0.00805823,0.00120613,0.0033912
 2,0.00286317,0.00619195,0.00151623,0.00052247,-0.00083012,0.00403880,-
 0.00086932,0.00692442,-0.00187872,-0.00780863,0.00026326,0.00300139,0.
 00839867,-0.08437350,-0.18752945,0.00055615,0.27519349,-0.00608284,-0.
 00718104,0.00266182,-0.00014155,0.00248200,-0.00045603,0.00029057,-0.0
 0280972,0.00022155,0.00062316,0.00218892,-0.00094600,0.00391186,0.0016
 3566,-0.00043886,-0.01998195,0.03120736,0.00931978,-0.61708273,0.22734
 422,0.13865074,0.73704662,0.00284158,0.00021127,-0.00085411,0.00138898
 ,0.00040076,-0.00054429,0.00124902,0.00320978,-0.00070371,0.00145503,-
 0.00347297,-0.00026209,-0.00540930,-0.00558227,0.00252640,0.04787317,-
 0.02077116,-0.01009885,0.21948356,-0.21612234,-0.05236223,-0.24785974,
 0.20775493,0.00162433,0.00217683,-0.00045522,-0.00034281,-0.00087490,-
 0.00060542,-0.00019873,0.00052369,0.00006699,-0.00086987,-0.00048411,-
 0.00144234,0.00029042,0.00039589,0.00289169,0.00759406,-0.00505828,0.0
 1974733,0.13946496,-0.05473984,-0.11728069,-0.18688322,0.05698956,0.08
 483098,0.00028314,0.00197468,0.00016482,0.00151429,0.00015549,-0.00061
 123,-0.00000926,0.00126624,-0.00012036,0.00081805,-0.00151427,-0.00030
 604,-0.00426507,0.00199137,0.00123183,0.00725231,-0.00586076,0.0020255
 4,-0.19371986,-0.05242555,0.04406294,-0.09775988,-0.02954418,0.0416240
 8,0.39017245,0.00648101,-0.00329145,-0.00146323,0.00001426,-0.00297045
 ,0.00025627,-0.00205511,0.00237524,0.00037822,-0.00073724,-0.00067859,
 0.00021940,-0.00157969,-0.00378877,0.00092075,-0.03299211,-0.03864158,
 0.01521362,-0.07954906,-0.19433245,0.03734545,-0.01864404,0.03499723,0
 .00509698,-0.05383902,0.65556251,-0.00030168,-0.00010065,0.00160605,-0
 .00059663,0.00021353,-0.00029550,0.00022353,-0.00062607,0.00002352,-0.
 00038648,0.00045436,-0.00064271,0.00160146,-0.00015921,0.00002233,0.00
 483459,0.00700987,0.00975701,0.04687026,0.02914302,-0.08314567,0.04049
 592,0.00839319,0.01665586,-0.10091297,-0.04764715,0.07348178,-0.007389
 24,-0.00660039,0.00511593,-0.00612244,0.05409108,-0.00098645,-0.087290
 05,0.05514597,0.00659831,0.01464477,-0.03137643,0.00159027,-0.00665590
 ,0.00191790,0.00403491,0.00422711,0.00276856,-0.00174344,0.00031644,-0
 .00210757,-0.00025180,-0.00014456,0.00067644,0.00003106,0.00055136,0.0
 0091422,-0.00023193,0.08369312,0.00337423,0.00483219,-0.00076796,0.014
 91904,-0.03641289,0.00020477,0.05520262,-0.32971833,0.01262241,0.00772
 173,-0.05614555,0.00442678,-0.00790498,0.00412438,0.00272382,0.0024009
 0,-0.00840832,0.00008341,-0.00203887,0.00985065,-0.00053153,0.00280621
 ,-0.00365243,-0.00045081,-0.00130029,-0.00325672,0.00074045,-0.0760169
 7,0.41821308,0.00408322,0.00224825,0.00580170,0.00306943,-0.01164052,0
 .00941333,0.00659239,0.01263962,-0.04988947,-0.00245789,0.01624956,0.0
 0822130,0.00505193,-0.00024656,0.00584210,-0.00170539,-0.00002774,-0.0
 0007192,-0.00025891,-0.00051079,-0.00110671,-0.00018946,0.00019327,0.0
 0022703,-0.00000265,0.00007084,0.00009085,-0.00990462,-0.01773548,0.02
 974149,-0.29671528,0.08844831,0.06792262,0.00082524,-0.00015698,0.0013
 4873,0.00211187,0.00029426,0.00183180,0.00051543,-0.00041526,-0.000440
 55,-0.00104701,-0.00352215,0.00239215,-0.01592143,0.00844457,0.0055063
 7,-0.00269446,0.00141995,-0.00055448,0.00176927,0.00128836,-0.00073980
 ,0.00050149,0.00001042,-0.00011951,-0.00004214,-0.00009296,-0.00011639
 ,0.31142865,0.09012716,-0.09133183,-0.02212608,0.02734973,-0.00505570,
 -0.00720512,0.00019595,-0.00414392,0.00122609,-0.00043125,-0.00119875,
 0.00014232,-0.00324990,-0.00266459,0.00184442,-0.01751979,0.01232877,0
 .00455755,-0.00285276,0.00046154,0.00039637,0.00137098,-0.00161516,-0.
 00027179,0.00137165,0.00069437,-0.00047529,0.00170920,-0.00127763,-0.0
 0043207,-0.09623156,0.09215778,0.06774886,-0.02161835,-0.06005862,-0.0
 0149922,0.00111255,0.00556990,0.00184193,0.00119636,0.00758953,-0.0004
 3889,0.00013752,-0.00096516,0.00236398,0.00192673,0.00474348,0.0081945
 7,-0.00329381,0.00304260,-0.00011214,-0.00089562,-0.00391543,-0.000748
 31,-0.00024682,0.00001579,-0.00026043,-0.00006366,0.00019517,-0.000302
 98,0.00011288,-0.00037896,-0.07581547,0.02243144,0.04836058,0.01010651
 ,0.00576239,-0.00278542,-0.19591721,-0.13248886,0.06203275,-0.01439873
 ,-0.02276301,0.00839662,-0.00396091,0.00293604,0.00241425,-0.00044768,
 0.00138626,-0.00024480,0.00159582,0.00249824,0.00155083,0.00059085,0.0
 0018981,-0.00002748,-0.00008658,-0.00004917,0.00003694,-0.00004785,0.0
 0021977,-0.00006856,0.00226517,-0.00011565,-0.00199122,0.00009967,-0.0
 0068209,-0.00131468,0.20092951,-0.02181059,-0.01382991,0.00832417,-0.1
 3423370,-0.18721865,0.05623315,0.00777518,0.00905551,-0.00271152,0.002
 59150,0.00009688,-0.00027307,0.00087909,-0.00056876,-0.00028796,0.0027
 7004,-0.00429388,0.00039175,-0.00150663,0.00033212,0.00047971,0.000348
 41,-0.00018741,-0.00008403,0.00004175,-0.00075855,0.00004526,-0.001323
 95,0.00120291,-0.00017555,0.00007016,0.00116429,-0.00060577,0.14412751
 ,0.19461039,0.00006940,-0.00001366,0.00284857,0.06221336,0.05570557,-0
 .06071927,0.00523482,0.00652293,0.00331650,0.00244991,-0.00037726,0.00
 432653,-0.00019230,-0.00044131,-0.00067873,0.00152274,0.00047394,0.007
 07030,0.00014816,-0.00003328,0.00052363,-0.00000423,0.00003620,0.00001
 625,-0.00005013,-0.00000856,-0.00018329,-0.00186612,-0.00054095,-0.003
 73909,-0.00139256,-0.00037829,-0.00402124,-0.06811713,-0.06114198,0.05
 194373,0.00037027,-0.00102670,-0.00024243,-0.00130059,-0.00338727,0.00
 225768,-0.01627823,0.01198214,0.00538013,-0.29672460,0.09003693,0.0695
 9446,0.00001738,0.00043393,0.00079687,0.00252551,0.00073083,0.00138172
 ,0.00011140,-0.00034851,0.00022016,-0.00012035,0.00009853,-0.00009004,
 0.00002242,0.00012651,-0.00002532,0.00160205,0.00015872,-0.00183639,-0
 .00009979,0.00003205,-0.00016910,-0.00070695,0.00048000,0.00020106,0.3
 1046125,-0.00047314,-0.00134095,0.00020085,-0.00303192,-0.00246368,0.0
 0169019,-0.01858600,0.01089694,0.00507347,0.09172302,-0.09208816,-0.02
 190237,0.02809259,-0.00439255,-0.00775004,0.00039537,-0.00524334,0.001
 18386,0.00133169,0.00095687,-0.00042719,0.00038634,-0.00085786,-0.0000
 6783,-0.00022894,-0.00022192,0.00009033,0.00133911,0.00179812,-0.00104
 838,0.00005456,0.00003689,-0.00008741,-0.00097990,0.00046289,0.0002610
 5,-0.09940341,0.09130036,-0.00029973,0.00036826,-0.00073049,0.00222092
 ,0.00179764,0.00414806,0.00854509,-0.00416997,0.00346444,0.06941983,-0
 .02139243,-0.05452279,-0.00206680,0.00061355,0.00336267,0.00141643,0.0
 0108237,0.00680476,0.00004621,0.00008088,0.00069779,-0.00011985,0.0000
 1924,-0.00035014,0.00001148,-0.00001714,-0.00001969,-0.00195861,-0.000
 69148,-0.00375272,-0.00017143,-0.00008061,-0.00058784,0.00035222,-0.00
 018041,0.00003447,-0.07609397,0.02317115,0.04539236,-0.00395632,0.0032
 8205,0.00266746,-0.00008283,0.00088032,-0.00040041,0.00126792,0.002281
 04,0.00186106,0.00974160,0.00651185,-0.00205032,-0.20115088,-0.1323055
 9,0.06212562,-0.01427087,-0.01993067,0.00767243,-0.00203091,-0.0027027
 5,-0.00035576,0.00097839,0.00037619,-0.00014559,0.00115884,0.00041113,
 -0.00032932,0.00034934,0.00071162,-0.00030688,-0.00071389,-0.00111207,
 0.00044133,-0.00004453,-0.00011638,-0.00019335,0.00011847,-0.00063544,
 -0.00130267,0.20814649,0.00304337,0.00031983,-0.00033334,0.00090571,-0
 .00067215,-0.00031875,0.00238788,-0.00335579,0.00047476,-0.02132826,-0
 .01420603,0.00845779,-0.13427550,-0.18256743,0.05526092,0.00666062,0.0
 1068257,-0.00267730,0.00033275,0.00146711,-0.00068042,-0.00066574,-0.0
 0002061,0.00026825,0.00121860,-0.00401922,0.00006942,-0.00103239,-0.00
 171078,0.00044563,0.00050777,0.00056569,-0.00017434,-0.00008432,-0.000
 01119,-0.00004828,0.00010221,0.00114489,-0.00060574,0.14214215,0.19234
 710,0.00269214,-0.00040555,0.00521662,-0.00040307,-0.00031103,-0.00095
 148,0.00185006,0.00050707,0.00759151,0.00083219,0.00003911,0.00493521,
 0.06232946,0.05466538,-0.06551198,0.00491934,0.00536356,0.00223456,-0.
 00067006,0.00023757,-0.00395475,-0.00003766,-0.00004687,0.00064202,-0.
 00041295,0.00031361,0.00030293,-0.00012631,-0.00008174,-0.00037519,0.0
 0027361,0.00031548,0.00024942,-0.00019667,-0.00003859,-0.00066031,-0.0
 0137903,-0.00038269,-0.00395038,-0.06947916,-0.06009710,0.05428196,0.0
 0065787,-0.00095741,0.00009537,-0.00032063,-0.00025153,0.00000417,-0.0
 0016219,-0.00004818,0.00008351,0.00027769,0.00022796,-0.00007599,-0.00
 046516,0.00044107,0.00003023,-0.00416618,-0.00227673,0.00280734,0.0183
 6375,-0.04184302,-0.00000436,-0.00321942,0.00613152,-0.00139578,-0.106
 47242,0.18121896,0.00894664,-0.00000504,0.00017465,-0.00002716,-0.0000
 1762,-0.00007729,0.00007054,0.00002291,-0.00009241,-0.00002363,0.00000
 179,0.00001607,0.00000089,0.00048917,0.00008514,-0.00019189,0.09501548
 ,0.00051076,-0.00100163,0.00001607,-0.00068854,0.00017909,0.00014899,0
 .00018332,-0.00038439,-0.00000554,0.00024425,0.00022244,-0.00008607,-0
 .00035946,0.00081464,0.00000217,-0.00388176,0.00088819,0.00153086,0.00
 264747,-0.04291665,0.00405909,0.00739019,0.00570824,-0.00341962,0.1366
 9324,-0.44166966,0.00284894,-0.00010477,0.00056133,-0.00003007,-0.0001
 1945,-0.00012174,0.00006831,0.00004299,-0.00005665,-0.00001613,-0.0000
 1597,0.00001149,0.00000470,0.00020654,0.00003600,-0.00007822,-0.142748
 80,0.47772930,-0.00005664,0.00046005,0.00061489,0.00004942,0.00001683,
 -0.00040964,0.00005954,0.00006446,0.00007280,-0.00007766,-0.00008114,0
 .00013634,0.00011310,-0.00023987,-0.00022352,0.00297348,0.00104576,0.0
 0333060,-0.00460999,0.01751235,0.00360620,-0.00152621,-0.00303889,-0.0
 0496013,0.01355606,-0.01061539,-0.01784864,0.00000177,-0.00011456,-0.0
 0002375,0.00007490,0.00005556,0.00016079,-0.00003764,0.00002482,-0.000
 07804,0.00000421,-0.00000499,0.00000949,-0.00020445,-0.00004150,-0.000
 05015,-0.01031988,-0.00504348,0.01566276\\-0.00008852,-0.00010261,0.00
 003764,-0.00008061,-0.00007376,0.00003194,-0.00004454,-0.00023717,0.00
 003776,0.00011919,0.00011362,-0.00004805,0.00022842,-0.00020234,-0.000
 04778,-0.00003689,0.00029324,-0.00001741,-0.00023885,-0.00004098,0.000
 07065,0.00012063,-0.00001474,-0.00003270,0.00001968,0.00004095,-0.0000
 0856,-0.00000888,0.00014287,-0.00001196,0.00003023,0.00005731,-0.00001
 512,0.00002946,0.00000295,-0.00000925,-0.00001405,0.00000510,0.0000037
 9,-0.00004795,0.00004621,0.00000966,0.00001268,-0.00003065,-0.00000061
 \\\@
 The archive entry for this job was punched.


     SCHOPENHAUER'S LAW OF ENTROPY
 IF YOU PUT A SPOONFUL OF WINE IN A BARREL FULL
 OF SEWAGE, YOU GET SEWAGE.
 IF YOU PUT A SPOONFUL OF SEWAGE IN A BARREL FULL
 OF WINE, YOU GET SEWAGE.
 Job cpu time:       0 days  8 hours 33 minutes 49.8 seconds.
 Elapsed time:       0 days  0 hours 25 minutes 42.0 seconds.
 File lengths (MBytes):  RWF=    371 Int=      0 D2E=      0 Chk=     31 Scr=      1
 Normal termination of Gaussian 16 at Wed Apr  2 21:50:03 2025.
