 Entering Gaussian System, Link 0=g16
 Initial command:
 /usr/local/gaussian16c01/g16/l1.exe "/scr/dhuang/Gau-94582.inp" -scrdir="/scr/dhuang/"
 Entering Link 1 = /usr/local/gaussian16c01/g16/l1.exe PID=     94583.
  
 Copyright (c) 1988-2019, Gaussian, Inc.  All Rights Reserved.
  
 This is part of the Gaussian(R) 16 program.  It is based on
 the Gaussian(R) 09 system (copyright 2009, Gaussian, Inc.),
 the Gaussian(R) 03 system (copyright 2003, Gaussian, Inc.),
 the Gaussian(R) 98 system (copyright 1998, Gaussian, Inc.),
 the Gaussian(R) 94 system (copyright 1995, Gaussian, Inc.),
 the Gaussian 92(TM) system (copyright 1992, Gaussian, Inc.),
 the Gaussian 90(TM) system (copyright 1990, Gaussian, Inc.),
 the Gaussian 88(TM) system (copyright 1988, Gaussian, Inc.),
 the Gaussian 86(TM) system (copyright 1986, Carnegie Mellon
 University), and the Gaussian 82(TM) system (copyright 1983,
 Carnegie Mellon University). Gaussian is a federally registered
 trademark of Gaussian, Inc.
  
 This software contains proprietary and confidential information,
 including trade secrets, belonging to Gaussian, Inc.
  
 This software is provided under written license and may be
 used, copied, transmitted, or stored only in accord with that
 written license.
  
 The following legend is applicable only to US Government
 contracts under FAR:
  
                    RESTRICTED RIGHTS LEGEND
  
 Use, reproduction and disclosure by the US Government is
 subject to restrictions as set forth in subparagraphs (a)
 and (c) of the Commercial Computer Software - Restricted
 Rights clause in FAR 52.227-19.
  
 Gaussian, Inc.
 340 Quinnipiac St., Bldg. 40, Wallingford CT 06492
  
  
 ---------------------------------------------------------------
 Warning -- This program may not be used in any manner that
 competes with the business of Gaussian, Inc. or will provide
 assistance to any competitor of Gaussian, Inc.  The licensee
 of this program is prohibited from giving any competitor of
 Gaussian, Inc. access to this program.  By using this program,
 the user acknowledges that Gaussian, Inc. is engaged in the
 business of creating and licensing software in the field of
 computational chemistry and represents and warrants to the
 licensee that it is not a competitor of Gaussian, Inc. and that
 it will not use this program in any manner prohibited above.
 ---------------------------------------------------------------
  

 Cite this work as:
 Gaussian 16, Revision C.01,
 M. J. Frisch, G. W. Trucks, H. B. Schlegel, G. E. Scuseria, 
 M. A. Robb, J. R. Cheeseman, G. Scalmani, V. Barone, 
 G. A. Petersson, H. Nakatsuji, X. Li, M. Caricato, A. V. Marenich, 
 J. Bloino, B. G. Janesko, R. Gomperts, B. Mennucci, H. P. Hratchian, 
 J. V. Ortiz, A. F. Izmaylov, J. L. Sonnenberg, D. Williams-Young, 
 F. Ding, F. Lipparini, F. Egidi, J. Goings, B. Peng, A. Petrone, 
 T. Henderson, D. Ranasinghe, V. G. Zakrzewski, J. Gao, N. Rega, 
 G. Zheng, W. Liang, M. Hada, M. Ehara, K. Toyota, R. Fukuda, 
 J. Hasegawa, M. Ishida, T. Nakajima, Y. Honda, O. Kitao, H. Nakai, 
 T. Vreven, K. Throssell, J. A. Montgomery, Jr., J. E. Peralta, 
 F. Ogliaro, M. J. Bearpark, J. J. Heyd, E. N. Brothers, K. N. Kudin, 
 V. N. Staroverov, T. A. Keith, R. Kobayashi, J. Normand, 
 K. Raghavachari, A. P. Rendell, J. C. Burant, S. S. Iyengar, 
 J. Tomasi, M. Cossi, J. M. Millam, M. Klene, C. Adamo, R. Cammi, 
 J. W. Ochterski, R. L. Martin, K. Morokuma, O. Farkas, 
 J. B. Foresman, and D. J. Fox, Gaussian, Inc., Wallingford CT, 2019.
 
 ******************************************
 Gaussian 16:  ES64L-G16RevC.01  3-Jul-2019
                 2-Apr-2025 
 ******************************************
 %nprocshared=20
 Will use up to   20 processors via shared memory.
 %mem=10000MW
 %chk=p-OMe.chk
 ------------------------------------
 # opt freq m062x/aug-cc-pvtz pop=nbo
 ------------------------------------
 1/18=20,19=15,26=3,38=1/1,3;
 2/9=110,12=2,17=6,18=5,40=1/2;
 3/5=16,6=1,7=10,11=2,25=1,30=1,71=1,74=-55/1,2,3;
 4//1;
 5/5=2,38=5/2;
 6/7=2,8=2,9=2,10=2,28=1,40=1/1,7;
 7//1,2,3,16;
 1/18=20,19=15,26=3/3(2);
 2/9=110/2;
 99//99;
 2/9=110/2;
 3/5=16,6=1,7=10,11=2,25=1,30=1,71=1,74=-55/1,2,3;
 4/5=5,16=3,69=1/1;
 5/5=2,38=5/2;
 7//1,2,3,16;
 1/18=20,19=15,26=3/3(-5);
 2/9=110/2;
 6/7=2,8=2,9=2,10=2,19=2,28=1,40=1/1,7;
 99/9=1/99;
 -----
 p-OMe
 -----
 Symbolic Z-matrix:
 Charge =  0 Multiplicity = 1
 C                    -1.4144    0.3037    0.6448 
 C                    -1.0794   -0.9955    0.6778 
 C                     0.1488   -1.4425    0.3525 
 C                     1.0374   -0.4975   -0.0138 
 C                     0.7203    0.8071   -0.0528 
 C                    -0.5127    1.2307    0.2762 
 C                    -0.8213    2.559     0.2322 
 O                    -1.9176    2.9912    0.5191 
 O                     0.0822    3.5005   -0.1384 
 O                     0.3994   -2.7926    0.4164 
 C                     1.6842   -3.2608    0.0773 
 H                    -2.4452    0.5735    0.9286 
 H                    -1.8433   -1.731     0.9849 
 H                     2.0668   -0.7693   -0.297 
 H                     1.5059    1.5164   -0.3637 
 H                    -0.3513    4.368    -0.097 
 H                     1.6837   -4.368     0.1921 
 H                     1.9152   -3.0223   -0.9849 
 H                     2.4452   -2.8403    0.772 
 

 GradGradGradGradGradGradGradGradGradGradGradGradGradGradGradGradGradGrad
 Berny optimization.
 Initialization pass.
                           ----------------------------
                           !    Initial Parameters    !
                           ! (Angstroms and Degrees)  !
 --------------------------                            --------------------------
 ! Name  Definition              Value          Derivative Info.                !
 --------------------------------------------------------------------------------
 ! R1    R(1,2)                  1.3421         estimate D2E/DX2                !
 ! R2    R(1,6)                  1.3447         estimate D2E/DX2                !
 ! R3    R(1,12)                 1.1027         estimate D2E/DX2                !
 ! R4    R(2,3)                  1.3469         estimate D2E/DX2                !
 ! R5    R(2,13)                 1.104          estimate D2E/DX2                !
 ! R6    R(3,4)                  1.3479         estimate D2E/DX2                !
 ! R7    R(3,10)                 1.3746         estimate D2E/DX2                !
 ! R8    R(4,5)                  1.3432         estimate D2E/DX2                !
 ! R9    R(4,14)                 1.1017         estimate D2E/DX2                !
 ! R10   R(5,6)                  1.3446         estimate D2E/DX2                !
 ! R11   R(5,15)                 1.1031         estimate D2E/DX2                !
 ! R12   R(6,7)                  1.3644         estimate D2E/DX2                !
 ! R13   R(7,8)                  1.2128         estimate D2E/DX2                !
 ! R14   R(7,9)                  1.3565         estimate D2E/DX2                !
 ! R15   R(9,16)                 0.9707         estimate D2E/DX2                !
 ! R16   R(10,11)                1.4089         estimate D2E/DX2                !
 ! R17   R(11,17)                1.1131         estimate D2E/DX2                !
 ! R18   R(11,18)                1.1129         estimate D2E/DX2                !
 ! R19   R(11,19)                1.1129         estimate D2E/DX2                !
 ! A1    A(2,1,6)              120.4439         estimate D2E/DX2                !
 ! A2    A(2,1,12)             117.637          estimate D2E/DX2                !
 ! A3    A(6,1,12)             121.9191         estimate D2E/DX2                !
 ! A4    A(1,2,3)              122.8842         estimate D2E/DX2                !
 ! A5    A(1,2,13)             118.623          estimate D2E/DX2                !
 ! A6    A(3,2,13)             118.4928         estimate D2E/DX2                !
 ! A7    A(2,3,4)              115.7291         estimate D2E/DX2                !
 ! A8    A(2,3,10)             118.7481         estimate D2E/DX2                !
 ! A9    A(4,3,10)             125.5227         estimate D2E/DX2                !
 ! A10   A(3,4,5)              122.2235         estimate D2E/DX2                !
 ! A11   A(3,4,14)             120.8558         estimate D2E/DX2                !
 ! A12   A(5,4,14)             116.9208         estimate D2E/DX2                !
 ! A13   A(4,5,6)              121.0229         estimate D2E/DX2                !
 ! A14   A(4,5,15)             117.683          estimate D2E/DX2                !
 ! A15   A(6,5,15)             121.2941         estimate D2E/DX2                !
 ! A16   A(1,6,5)              117.6965         estimate D2E/DX2                !
 ! A17   A(1,6,7)              121.891          estimate D2E/DX2                !
 ! A18   A(5,6,7)              120.4125         estimate D2E/DX2                !
 ! A19   A(6,7,8)              122.9392         estimate D2E/DX2                !
 ! A20   A(6,7,9)              122.2674         estimate D2E/DX2                !
 ! A21   A(8,7,9)              114.7934         estimate D2E/DX2                !
 ! A22   A(7,9,16)             108.1308         estimate D2E/DX2                !
 ! A23   A(3,10,11)            118.78           estimate D2E/DX2                !
 ! A24   A(10,11,17)           107.7773         estimate D2E/DX2                !
 ! A25   A(10,11,18)           110.3527         estimate D2E/DX2                !
 ! A26   A(10,11,19)           110.3511         estimate D2E/DX2                !
 ! A27   A(17,11,18)           108.1613         estimate D2E/DX2                !
 ! A28   A(17,11,19)           108.1651         estimate D2E/DX2                !
 ! A29   A(18,11,19)           111.8937         estimate D2E/DX2                !
 ! D1    D(6,1,2,3)             -0.0003         estimate D2E/DX2                !
 ! D2    D(6,1,2,13)          -179.999          estimate D2E/DX2                !
 ! D3    D(12,1,2,3)           179.9938         estimate D2E/DX2                !
 ! D4    D(12,1,2,13)           -0.005          estimate D2E/DX2                !
 ! D5    D(2,1,6,5)             -0.0076         estimate D2E/DX2                !
 ! D6    D(2,1,6,7)            179.9997         estimate D2E/DX2                !
 ! D7    D(12,1,6,5)           179.9986         estimate D2E/DX2                !
 ! D8    D(12,1,6,7)             0.0059         estimate D2E/DX2                !
 ! D9    D(1,2,3,4)              0.0092         estimate D2E/DX2                !
 ! D10   D(1,2,3,10)           179.9952         estimate D2E/DX2                !
 ! D11   D(13,2,3,4)          -179.992          estimate D2E/DX2                !
 ! D12   D(13,2,3,10)           -0.006          estimate D2E/DX2                !
 ! D13   D(2,3,4,5)             -0.0105         estimate D2E/DX2                !
 ! D14   D(2,3,4,14)           179.9963         estimate D2E/DX2                !
 ! D15   D(10,3,4,5)          -179.9954         estimate D2E/DX2                !
 ! D16   D(10,3,4,14)            0.0114         estimate D2E/DX2                !
 ! D17   D(2,3,10,11)         -179.9501         estimate D2E/DX2                !
 ! D18   D(4,3,10,11)            0.0344         estimate D2E/DX2                !
 ! D19   D(3,4,5,6)              0.003          estimate D2E/DX2                !
 ! D20   D(3,4,5,15)          -179.9944         estimate D2E/DX2                !
 ! D21   D(14,4,5,6)           179.9964         estimate D2E/DX2                !
 ! D22   D(14,4,5,15)           -0.001          estimate D2E/DX2                !
 ! D23   D(4,5,6,1)              0.0063         estimate D2E/DX2                !
 ! D24   D(4,5,6,7)            179.9991         estimate D2E/DX2                !
 ! D25   D(15,5,6,1)          -179.9964         estimate D2E/DX2                !
 ! D26   D(15,5,6,7)            -0.0036         estimate D2E/DX2                !
 ! D27   D(1,6,7,8)             -0.0012         estimate D2E/DX2                !
 ! D28   D(1,6,7,9)            179.9979         estimate D2E/DX2                !
 ! D29   D(5,6,7,8)           -179.9936         estimate D2E/DX2                !
 ! D30   D(5,6,7,9)              0.0055         estimate D2E/DX2                !
 ! D31   D(6,7,9,16)           179.999          estimate D2E/DX2                !
 ! D32   D(8,7,9,16)            -0.0019         estimate D2E/DX2                !
 ! D33   D(3,10,11,17)         179.9863         estimate D2E/DX2                !
 ! D34   D(3,10,11,18)         -62.1054         estimate D2E/DX2                !
 ! D35   D(3,10,11,19)          62.0743         estimate D2E/DX2                !
 --------------------------------------------------------------------------------
 Trust Radius=3.00D-01 FncErr=1.00D-07 GrdErr=1.00D-06 EigMax=2.50D+02 EigMin=1.00D-04
 Number of steps in this run=     93 maximum allowed number of steps=    114.
 GradGradGradGradGradGradGradGradGradGradGradGradGradGradGradGradGradGrad

                          Input orientation:                          
 ---------------------------------------------------------------------
 Center     Atomic      Atomic             Coordinates (Angstroms)
 Number     Number       Type             X           Y           Z
 ---------------------------------------------------------------------
      1          6           0       -1.414400    0.303700    0.644800
      2          6           0       -1.079400   -0.995500    0.677800
      3          6           0        0.148800   -1.442500    0.352500
      4          6           0        1.037400   -0.497500   -0.013800
      5          6           0        0.720300    0.807100   -0.052800
      6          6           0       -0.512700    1.230700    0.276200
      7          6           0       -0.821300    2.559000    0.232200
      8          8           0       -1.917600    2.991200    0.519100
      9          8           0        0.082200    3.500500   -0.138400
     10          8           0        0.399400   -2.792600    0.416400
     11          6           0        1.684200   -3.260800    0.077300
     12          1           0       -2.445200    0.573500    0.928600
     13          1           0       -1.843300   -1.731000    0.984900
     14          1           0        2.066800   -0.769300   -0.297000
     15          1           0        1.505900    1.516400   -0.363700
     16          1           0       -0.351300    4.368000   -0.097000
     17          1           0        1.683700   -4.368000    0.192100
     18          1           0        1.915200   -3.022300   -0.984900
     19          1           0        2.445200   -2.840300    0.772000
 ---------------------------------------------------------------------
                    Distance matrix (angstroms):
                    1          2          3          4          5
     1  C    0.000000
     2  C    1.342101   0.000000
     3  C    2.361831   1.346887   0.000000
     4  C    2.662142   2.281920   1.347891   0.000000
     5  C    2.301522   2.649918   2.356179   1.343151   0.000000
     6  C    1.344715   2.332037   2.754887   2.339569   1.344607
     7  C    2.368203   3.591608   4.119171   3.585732   2.350938
     8  O    2.737091   4.076953   4.894432   4.602938   3.472158
     9  O    3.615625   4.714818   4.967763   4.112412   2.769278
    10  O    3.595707   2.341954   1.374647   2.420661   3.644306
    11  C    4.756999   3.623489   2.395705   2.839450   4.182564
    12  H    1.102671   2.095250   3.335413   3.763464   3.322364
    13  H    2.107042   1.103999   2.109887   3.288975   3.753774
    14  H    3.762588   3.301511   2.133957   1.101700   2.087518
    15  H    3.319016   3.752085   3.333129   2.097073   1.103147
    16  H    4.266027   5.467868   5.849279   5.060484   3.718910
    17  H    5.623872   4.386842   3.307597   3.929487   5.269704
    18  H    4.980405   3.979965   2.721135   2.843973   4.118361
    19  H    4.979702   3.979317   2.720897   2.843958   4.118143
                    6          7          8          9         10
     6  C    0.000000
     7  C    1.364387   0.000000
     8  O    2.265415   1.212841   0.000000
     9  O    2.382812   1.356495   2.165847   0.000000
    10  O    4.127775   5.492145   6.231483   6.325467   0.000000
    11  C    5.003949   6.338107   7.228807   6.951842   1.408869
    12  H    2.142917   2.657863   2.508251   4.011679   4.436747
    13  H    3.323314   4.473828   4.745699   5.686646   2.545563
    14  H    3.313967   4.438328   5.539208   4.711155   2.717150
    15  H    2.136783   2.618773   3.830760   2.452414   4.516678
    16  H    3.163539   1.897829   2.174501   0.970666   7.218125
    17  H    6.014706   7.366136   8.199641   8.036624   2.044901
    18  H    5.056983   6.334088   7.287973   6.828131   2.077030
    19  H    5.056484   6.333549   7.287275   6.827763   2.077023
                   11         12         13         14         15
    11  C    0.000000
    12  H    5.698992   0.000000
    13  H    3.950605   2.382472   0.000000
    14  H    2.548344   4.864499   4.225756   0.000000
    15  H    4.800824   4.262662   4.856076   2.354460   0.000000
    16  H    7.897609   4.453594   6.371371   5.681466   3.413494
    17  H    1.113136   6.481410   4.474598   3.651935   5.913264
    18  H    1.112885   5.966938   4.435526   2.360550   4.599262
    19  H    1.112901   5.966118   4.434761   2.361141   4.599232
                   16         17         18         19
    16  H    0.000000
    17  H    8.974547   0.000000
    18  H    7.780869   1.802728   0.000000
    19  H    7.780435   1.802785   1.844105   0.000000
 Stoichiometry    C8H8O3
 Framework group  C1[X(C8H8O3)]
 Deg. of freedom    51
 Full point group                 C1      NOp   1
 Largest Abelian subgroup         C1      NOp   1
 Largest concise Abelian subgroup C1      NOp   1
                         Standard orientation:                         
 ---------------------------------------------------------------------
 Center     Atomic      Atomic             Coordinates (Angstroms)
 Number     Number       Type             X           Y           Z
 ---------------------------------------------------------------------
      1          6           0        0.511578    1.276456    0.000052
      2          6           0       -0.827492    1.366604   -0.000071
      3          6           0       -1.633096    0.287203   -0.000311
      4          6           0       -1.009973   -0.908008   -0.000229
      5          6           0        0.328685   -1.017787   -0.000135
      6          6           0        1.113528    0.073995   -0.000058
      7          6           0        2.472085   -0.052000    0.000057
      8          8           0        3.222743    0.900624    0.000243
      9          8           0        3.087264   -1.260981   -0.000012
     10          8           0       -2.994406    0.478218   -0.000320
     11          6           0       -3.837711   -0.650386    0.000503
     12          1           0        1.087532    2.216754    0.000144
     13          1           0       -1.290070    2.369019    0.000009
     14          1           0       -1.587394   -1.846265   -0.000350
     15          1           0        0.759627   -2.033278   -0.000168
     16          1           0        4.046405   -1.111845    0.000078
     17          1           0       -4.890264   -0.288166    0.000608
     18          1           0       -3.678427   -1.253254   -0.921283
     19          1           0       -3.677841   -1.252317    0.922821
 ---------------------------------------------------------------------
 Rotational constants (GHZ):           3.6942913           0.5883779           0.5092961
 Standard basis: Aug-CC-pVTZ (5D, 7F)
 There are   805 symmetry adapted cartesian basis functions of A   symmetry.
 There are   690 symmetry adapted basis functions of A   symmetry.
   690 basis functions,  1008 primitive gaussians,   805 cartesian basis functions
    40 alpha electrons       40 beta electrons
       nuclear repulsion energy       587.1279012008 Hartrees.
 NAtoms=   19 NActive=   19 NUniq=   19 SFac= 1.00D+00 NAtFMM=   60 NAOKFM=F Big=F
 Integral buffers will be    131072 words long.
 Raffenetti 2 integral format.
 Two-electron integral symmetry is turned on.
 One-electron integrals computed using PRISM.
 NBasis=   690 RedAO= T EigKep=  1.08D-06  NBF=   690
 NBsUse=   687 1.00D-06 EigRej=  8.08D-07 NBFU=   687
 ExpMin= 2.53D-02 ExpMax= 1.53D+04 ExpMxC= 5.22D+02 IAcc=3 IRadAn=         5 AccDes= 0.00D+00
 Harris functional with IExCor= 1009 and IRadAn=       5 diagonalized for initial guess.
 HarFok:  IExCor= 1009 AccDes= 0.00D+00 IRadAn=         5 IDoV= 1 UseB2=F ITyADJ=14
 ICtDFT=  3500011 ScaDFX=  1.000000  1.000000  1.000000  1.000000
 FoFCou: FMM=F IPFlag=           0 FMFlag=      100000 FMFlg1=           0
         NFxFlg=           0 DoJE=T BraDBF=F KetDBF=T FulRan=T
         wScrn=  0.000000 ICntrl=       500 IOpCl=  0 I1Cent=   200000004 NGrid=           0
         NMat0=    1 NMatS0=      1 NMatT0=    0 NMatD0=    1 NMtDS0=    0 NMtDT0=    0
 Petite list used in FoFCou.
 Requested convergence on RMS density matrix=1.00D-08 within 128 cycles.
 Requested convergence on MAX density matrix=1.00D-06.
 Requested convergence on             energy=1.00D-06.
 No special actions if energy rises.
 SCF Done:  E(RM062X) =  -535.315159262     A.U. after   14 cycles
            NFock= 14  Conv=0.38D-08     -V/T= 2.0037

 **********************************************************************

            Population analysis using the SCF Density.

 **********************************************************************

 Orbital symmetries:
       Occupied  (A) (A) (A) (A) (A) (A) (A) (A) (A) (A) (A) (A)
                 (A) (A) (A) (A) (A) (A) (A) (A) (A) (A) (A) (A)
                 (A) (A) (A) (A) (A) (A) (A) (A) (A) (A) (A) (A)
                 (A) (A) (A) (A)
       Virtual   (A) (A) (A) (A) (A) (A) (A) (A) (A) (A) (A) (A)
                 (A) (A) (A) (A) (A) (A) (A) (A) (A) (A) (A) (A)
                 (A) (A) (A) (A) (A) (A) (A) (A) (A) (A) (A) (A)
                 (A) (A) (A) (A) (A) (A) (A) (A) (A) (A) (A) (A)
                 (A) (A) (A) (A) (A) (A) (A) (A) (A) (A) (A) (A)
                 (A) (A) (A) (A) (A) (A) (A) (A) (A) (A) (A) (A)
                 (A) (A) (A) (A) (A) (A) (A) (A) (A) (A) (A) (A)
                 (A) (A) (A) (A) (A) (A) (A) (A) (A) (A) (A) (A)
                 (A) (A) (A) (A) (A) (A) (A) (A) (A) (A) (A) (A)
                 (A) (A) (A) (A) (A) (A) (A) (A) (A) (A) (A) (A)
                 (A) (A) (A) (A) (A) (A) (A) (A) (A) (A) (A) (A)
                 (A) (A) (A) (A) (A) (A) (A) (A) (A) (A) (A) (A)
                 (A) (A) (A) (A) (A) (A) (A) (A) (A) (A) (A) (A)
                 (A) (A) (A) (A) (A) (A) (A) (A) (A) (A) (A) (A)
                 (A) (A) (A) (A) (A) (A) (A) (A) (A) (A) (A) (A)
                 (A) (A) (A) (A) (A) (A) (A) (A) (A) (A) (A) (A)
                 (A) (A) (A) (A) (A) (A) (A) (A) (A) (A) (A) (A)
                 (A) (A) (A) (A) (A) (A) (A) (A) (A) (A) (A) (A)
                 (A) (A) (A) (A) (A) (A) (A) (A) (A) (A) (A) (A)
                 (A) (A) (A) (A) (A) (A) (A) (A) (A) (A) (A) (A)
                 (A) (A) (A) (A) (A) (A) (A) (A) (A) (A) (A) (A)
                 (A) (A) (A) (A) (A) (A) (A) (A) (A) (A) (A) (A)
                 (A) (A) (A) (A) (A) (A) (A) (A) (A) (A) (A) (A)
                 (A) (A) (A) (A) (A) (A) (A) (A) (A) (A) (A) (A)
                 (A) (A) (A) (A) (A) (A) (A) (A) (A) (A) (A) (A)
                 (A) (A) (A) (A) (A) (A) (A) (A) (A) (A) (A) (A)
                 (A) (A) (A) (A) (A) (A) (A) (A) (A) (A) (A) (A)
                 (A) (A) (A) (A) (A) (A) (A) (A) (A) (A) (A) (A)
                 (A) (A) (A) (A) (A) (A) (A) (A) (A) (A) (A) (A)
                 (A) (A) (A) (A) (A) (A) (A) (A) (A) (A) (A) (A)
                 (A) (A) (A) (A) (A) (A) (A) (A) (A) (A) (A) (A)
                 (A) (A) (A) (A) (A) (A) (A) (A) (A) (A) (A) (A)
                 (A) (A) (A) (A) (A) (A) (A) (A) (A) (A) (A) (A)
                 (A) (A) (A) (A) (A) (A) (A) (A) (A) (A) (A) (A)
                 (A) (A) (A) (A) (A) (A) (A) (A) (A) (A) (A) (A)
                 (A) (A) (A) (A) (A) (A) (A) (A) (A) (A) (A) (A)
                 (A) (A) (A) (A) (A) (A) (A) (A) (A) (A) (A) (A)
                 (A) (A) (A) (A) (A) (A) (A) (A) (A) (A) (A) (A)
                 (A) (A) (A) (A) (A) (A) (A) (A) (A) (A) (A) (A)
                 (A) (A) (A) (A) (A) (A) (A) (A) (A) (A) (A) (A)
                 (A) (A) (A) (A) (A) (A) (A) (A) (A) (A) (A) (A)
                 (A) (A) (A) (A) (A) (A) (A) (A) (A) (A) (A) (A)
                 (A) (A) (A) (A) (A) (A) (A) (A) (A) (A) (A) (A)
                 (A) (A) (A) (A) (A) (A) (A) (A) (A) (A) (A) (A)
                 (A) (A) (A) (A) (A) (A) (A) (A) (A) (A) (A) (A)
                 (A) (A) (A) (A) (A) (A) (A) (A) (A) (A) (A) (A)
                 (A) (A) (A) (A) (A) (A) (A) (A) (A) (A) (A) (A)
                 (A) (A) (A) (A) (A) (A) (A) (A) (A) (A) (A) (A)
                 (A) (A) (A) (A) (A) (A) (A) (A) (A) (A) (A) (A)
                 (A) (A) (A) (A) (A) (A) (A) (A) (A) (A) (A) (A)
                 (A) (A) (A) (A) (A) (A) (A) (A) (A) (A) (A) (A)
                 (A) (A) (A) (A) (A) (A) (A) (A) (A) (A) (A) (A)
                 (A) (A) (A) (A) (A) (A) (A) (A) (A) (A) (A) (A)
                 (A) (A) (A) (A) (A) (A) (A) (A) (A) (A) (A)
 The electronic state is 1-A.
 Alpha  occ. eigenvalues --  -19.67344 -19.66243 -19.59990 -10.66530 -10.61688
 Alpha  occ. eigenvalues --  -10.60972 -10.55628 -10.55380 -10.54800 -10.54439
 Alpha  occ. eigenvalues --  -10.54418  -1.23366  -1.20719  -1.12397  -1.01212
 Alpha  occ. eigenvalues --   -0.90668  -0.87547  -0.82090  -0.75051  -0.72218
 Alpha  occ. eigenvalues --   -0.67826  -0.63920  -0.60917  -0.58453  -0.56784
 Alpha  occ. eigenvalues --   -0.56158  -0.54231  -0.52172  -0.51526  -0.49612
 Alpha  occ. eigenvalues --   -0.49001  -0.47742  -0.46232  -0.43438  -0.41620
 Alpha  occ. eigenvalues --   -0.40136  -0.38792  -0.35066  -0.33461  -0.30827
 Alpha virt. eigenvalues --   -0.02259  -0.01113   0.00070   0.00538   0.01213
 Alpha virt. eigenvalues --    0.01353   0.01387   0.02459   0.03137   0.03780
 Alpha virt. eigenvalues --    0.04027   0.05011   0.05641   0.05879   0.07120
 Alpha virt. eigenvalues --    0.07172   0.07719   0.08042   0.08270   0.08553
 Alpha virt. eigenvalues --    0.09203   0.09492   0.09816   0.09907   0.10189
 Alpha virt. eigenvalues --    0.10612   0.10906   0.11010   0.11600   0.11942
 Alpha virt. eigenvalues --    0.12324   0.13276   0.13537   0.13651   0.14236
 Alpha virt. eigenvalues --    0.14815   0.15659   0.16518   0.17284   0.17779
 Alpha virt. eigenvalues --    0.18133   0.18273   0.19536   0.19717   0.20054
 Alpha virt. eigenvalues --    0.20382   0.20841   0.20933   0.22005   0.22209
 Alpha virt. eigenvalues --    0.22581   0.22916   0.23398   0.23707   0.23794
 Alpha virt. eigenvalues --    0.24069   0.25059   0.25068   0.25354   0.26495
 Alpha virt. eigenvalues --    0.26753   0.26992   0.27083   0.27667   0.27689
 Alpha virt. eigenvalues --    0.28128   0.28959   0.29274   0.29810   0.30191
 Alpha virt. eigenvalues --    0.30705   0.31939   0.32336   0.33362   0.33961
 Alpha virt. eigenvalues --    0.34040   0.34310   0.34511   0.34635   0.34806
 Alpha virt. eigenvalues --    0.35156   0.36020   0.36183   0.36513   0.36573
 Alpha virt. eigenvalues --    0.37633   0.37665   0.37925   0.38061   0.38603
 Alpha virt. eigenvalues --    0.38885   0.39849   0.40151   0.40277   0.40665
 Alpha virt. eigenvalues --    0.41115   0.41993   0.42013   0.42215   0.43761
 Alpha virt. eigenvalues --    0.43912   0.44200   0.44507   0.44736   0.45545
 Alpha virt. eigenvalues --    0.45985   0.46664   0.47541   0.48173   0.48959
 Alpha virt. eigenvalues --    0.49088   0.49474   0.51417   0.51765   0.52124
 Alpha virt. eigenvalues --    0.53328   0.53658   0.54704   0.54934   0.55055
 Alpha virt. eigenvalues --    0.55820   0.57043   0.57115   0.57961   0.58015
 Alpha virt. eigenvalues --    0.58770   0.59034   0.60078   0.60716   0.61834
 Alpha virt. eigenvalues --    0.62999   0.63840   0.64554   0.65108   0.65315
 Alpha virt. eigenvalues --    0.66928   0.67467   0.67813   0.67962   0.68962
 Alpha virt. eigenvalues --    0.69210   0.70272   0.71277   0.71367   0.72344
 Alpha virt. eigenvalues --    0.72565   0.73012   0.73231   0.73877   0.74362
 Alpha virt. eigenvalues --    0.75513   0.75733   0.76137   0.76351   0.77407
 Alpha virt. eigenvalues --    0.77932   0.78048   0.78190   0.78913   0.79189
 Alpha virt. eigenvalues --    0.79760   0.79946   0.80853   0.81220   0.82152
 Alpha virt. eigenvalues --    0.83046   0.83172   0.83433   0.83637   0.84337
 Alpha virt. eigenvalues --    0.84504   0.85064   0.85187   0.86458   0.86998
 Alpha virt. eigenvalues --    0.87276   0.87625   0.88249   0.88789   0.89270
 Alpha virt. eigenvalues --    0.89819   0.91044   0.91422   0.91522   0.91982
 Alpha virt. eigenvalues --    0.92127   0.92872   0.94080   0.94453   0.94744
 Alpha virt. eigenvalues --    0.95001   0.96622   0.96919   0.97895   0.98491
 Alpha virt. eigenvalues --    0.98704   0.99900   1.00132   1.00418   1.01304
 Alpha virt. eigenvalues --    1.01671   1.02866   1.03109   1.03301   1.04311
 Alpha virt. eigenvalues --    1.04855   1.05187   1.05809   1.05961   1.06267
 Alpha virt. eigenvalues --    1.06515   1.07241   1.07830   1.07885   1.10121
 Alpha virt. eigenvalues --    1.10646   1.10925   1.11175   1.11177   1.13265
 Alpha virt. eigenvalues --    1.13731   1.13848   1.14328   1.14602   1.16547
 Alpha virt. eigenvalues --    1.16677   1.17199   1.18707   1.19028   1.19871
 Alpha virt. eigenvalues --    1.20912   1.23292   1.23513   1.24060   1.25200
 Alpha virt. eigenvalues --    1.25675   1.26990   1.27366   1.27623   1.28473
 Alpha virt. eigenvalues --    1.29146   1.32152   1.32667   1.33308   1.34001
 Alpha virt. eigenvalues --    1.34030   1.35286   1.35744   1.36898   1.37275
 Alpha virt. eigenvalues --    1.37384   1.38336   1.40033   1.40444   1.40536
 Alpha virt. eigenvalues --    1.42216   1.44323   1.44624   1.45220   1.46060
 Alpha virt. eigenvalues --    1.46303   1.47302   1.47403   1.48778   1.49116
 Alpha virt. eigenvalues --    1.50053   1.51180   1.52026   1.52221   1.53086
 Alpha virt. eigenvalues --    1.54145   1.55668   1.55763   1.56385   1.57184
 Alpha virt. eigenvalues --    1.57597   1.58547   1.58639   1.59528   1.59917
 Alpha virt. eigenvalues --    1.60825   1.63840   1.63856   1.64978   1.65834
 Alpha virt. eigenvalues --    1.66447   1.67231   1.68673   1.69524   1.69702
 Alpha virt. eigenvalues --    1.71038   1.71547   1.72256   1.72430   1.73764
 Alpha virt. eigenvalues --    1.74207   1.74325   1.77379   1.78128   1.79517
 Alpha virt. eigenvalues --    1.80089   1.81107   1.81309   1.82364   1.83473
 Alpha virt. eigenvalues --    1.83635   1.84248   1.85909   1.86608   1.87106
 Alpha virt. eigenvalues --    1.88122   1.88733   1.89300   1.90167   1.91072
 Alpha virt. eigenvalues --    1.93524   1.94210   1.94876   1.95691   1.96853
 Alpha virt. eigenvalues --    1.97490   1.98936   1.99312   1.99365   2.01280
 Alpha virt. eigenvalues --    2.02694   2.03217   2.04227   2.05067   2.06384
 Alpha virt. eigenvalues --    2.06482   2.09003   2.09542   2.11622   2.13675
 Alpha virt. eigenvalues --    2.15372   2.16608   2.17724   2.17890   2.17999
 Alpha virt. eigenvalues --    2.18871   2.20416   2.23067   2.25206   2.25309
 Alpha virt. eigenvalues --    2.26012   2.27770   2.28363   2.29143   2.34362
 Alpha virt. eigenvalues --    2.34475   2.34653   2.35756   2.39197   2.39430
 Alpha virt. eigenvalues --    2.41657   2.42428   2.43353   2.43709   2.45175
 Alpha virt. eigenvalues --    2.46168   2.46531   2.47590   2.48819   2.51724
 Alpha virt. eigenvalues --    2.53927   2.54718   2.55294   2.56762   2.57517
 Alpha virt. eigenvalues --    2.57799   2.60186   2.60701   2.65014   2.67568
 Alpha virt. eigenvalues --    2.67588   2.70602   2.71803   2.72172   2.74230
 Alpha virt. eigenvalues --    2.76276   2.76405   2.79005   2.79010   2.80729
 Alpha virt. eigenvalues --    2.82115   2.83028   2.86375   2.89121   2.91274
 Alpha virt. eigenvalues --    2.93203   2.95894   2.96560   2.97455   2.97915
 Alpha virt. eigenvalues --    2.99475   3.00905   3.01712   3.03731   3.03821
 Alpha virt. eigenvalues --    3.06660   3.07859   3.09859   3.11958   3.12839
 Alpha virt. eigenvalues --    3.13404   3.13850   3.14511   3.15374   3.16400
 Alpha virt. eigenvalues --    3.17915   3.18635   3.19039   3.20530   3.21041
 Alpha virt. eigenvalues --    3.23049   3.25016   3.25595   3.26661   3.28277
 Alpha virt. eigenvalues --    3.28894   3.29477   3.29756   3.32013   3.32481
 Alpha virt. eigenvalues --    3.34863   3.35938   3.36089   3.36246   3.37475
 Alpha virt. eigenvalues --    3.38729   3.39653   3.42019   3.44231   3.45052
 Alpha virt. eigenvalues --    3.45996   3.46017   3.47553   3.48152   3.50053
 Alpha virt. eigenvalues --    3.50185   3.51627   3.52470   3.53702   3.54571
 Alpha virt. eigenvalues --    3.56553   3.57018   3.57252   3.57863   3.59155
 Alpha virt. eigenvalues --    3.59553   3.63185   3.64414   3.64466   3.65969
 Alpha virt. eigenvalues --    3.66492   3.67529   3.67767   3.68696   3.71759
 Alpha virt. eigenvalues --    3.73040   3.73511   3.75013   3.76578   3.77160
 Alpha virt. eigenvalues --    3.78710   3.80035   3.81266   3.83085   3.83787
 Alpha virt. eigenvalues --    3.85170   3.86365   3.86551   3.86999   3.88024
 Alpha virt. eigenvalues --    3.89275   3.91244   3.91584   3.93791   3.94260
 Alpha virt. eigenvalues --    3.95706   3.95936   3.97018   3.97869   3.98621
 Alpha virt. eigenvalues --    3.99389   3.99437   4.00918   4.02826   4.02908
 Alpha virt. eigenvalues --    4.03550   4.06687   4.08333   4.08582   4.10009
 Alpha virt. eigenvalues --    4.10442   4.11709   4.14653   4.14906   4.16373
 Alpha virt. eigenvalues --    4.17164   4.18418   4.20446   4.22769   4.22835
 Alpha virt. eigenvalues --    4.23303   4.24292   4.26420   4.27670   4.30306
 Alpha virt. eigenvalues --    4.30981   4.31925   4.33146   4.36573   4.38467
 Alpha virt. eigenvalues --    4.40834   4.41711   4.43174   4.43209   4.44748
 Alpha virt. eigenvalues --    4.46029   4.46112   4.48654   4.49550   4.51386
 Alpha virt. eigenvalues --    4.54309   4.58271   4.58485   4.60721   4.60924
 Alpha virt. eigenvalues --    4.61310   4.63305   4.65930   4.67074   4.67125
 Alpha virt. eigenvalues --    4.68317   4.68363   4.70378   4.71250   4.73406
 Alpha virt. eigenvalues --    4.73814   4.75465   4.76871   4.78930   4.79692
 Alpha virt. eigenvalues --    4.80861   4.85217   4.86188   4.88894   4.89664
 Alpha virt. eigenvalues --    4.91402   4.94726   4.97084   4.97937   4.98275
 Alpha virt. eigenvalues --    5.01496   5.03908   5.05305   5.05744   5.06877
 Alpha virt. eigenvalues --    5.08454   5.09947   5.11300   5.14214   5.16137
 Alpha virt. eigenvalues --    5.20663   5.21629   5.23624   5.24455   5.27454
 Alpha virt. eigenvalues --    5.31606   5.36723   5.37538   5.41111   5.45147
 Alpha virt. eigenvalues --    5.51988   5.55436   5.56399   5.58370   5.63726
 Alpha virt. eigenvalues --    5.68398   5.75109   5.79450   5.81727   5.91229
 Alpha virt. eigenvalues --    5.92150   5.94389   6.03842   6.05283   6.13471
 Alpha virt. eigenvalues --    6.15770   6.19236   6.24789   6.25425   6.27615
 Alpha virt. eigenvalues --    6.29879   6.34648   6.37941   6.40805   6.44235
 Alpha virt. eigenvalues --    6.46344   6.49197   6.52895   6.55440   6.56279
 Alpha virt. eigenvalues --    6.56940   6.64423   6.64453   6.68838   6.70578
 Alpha virt. eigenvalues --    6.72813   6.76113   6.80171   6.81139   6.83695
 Alpha virt. eigenvalues --    6.88388   6.91124   6.92243   6.94978   7.01769
 Alpha virt. eigenvalues --    7.05095   7.09247   7.11868   7.15139   7.19197
 Alpha virt. eigenvalues --    7.31112   7.35129   7.35318   7.37714   7.43489
 Alpha virt. eigenvalues --    7.53612   7.71718   7.85765   7.91396   8.02921
 Alpha virt. eigenvalues --    8.05549  15.49064  15.78213  15.88304  17.10197
 Alpha virt. eigenvalues --   17.27063  17.74160  18.28342  19.19233  20.14633
 Alpha virt. eigenvalues --   20.37405  20.85982
          Condensed to atoms (all electrons):
               1          2          3          4          5          6
     1  C    8.339910  -0.216776  -0.117031  -0.306348   0.227808  -0.869592
     2  C   -0.216776   7.282593  -0.203158  -0.151191  -0.307193   0.196919
     3  C   -0.117031  -0.203158   6.524931  -0.254246  -0.133884  -0.287625
     4  C   -0.306348  -0.151191  -0.254246   7.300399  -0.422396   0.009916
     5  C    0.227808  -0.307193  -0.133884  -0.422396   9.058199  -0.955546
     6  C   -0.869592   0.196919  -0.287625   0.009916  -0.955546   7.303973
     7  C   -0.411764  -0.102978   0.140744   0.026164  -0.704040  -0.617925
     8  O    0.027601  -0.045312  -0.002614  -0.011843   0.045906  -0.222677
     9  O    0.016679  -0.006681  -0.003164  -0.004294  -0.072995  -0.021505
    10  O    0.113451  -0.227464  -0.041430  -0.368304   0.075389  -0.047544
    11  C    0.018232  -0.073440   0.128853  -0.105440   0.013908  -0.006973
    12  H    0.720929  -0.696643   0.090961  -0.022831   0.092629  -0.524339
    13  H   -0.574179   0.722967  -0.359970   0.055933  -0.007492   0.067590
    14  H   -0.058296   0.012002  -0.662468   0.948865  -0.973014   0.209367
    15  H    0.142708  -0.031264   0.188205  -0.807333   0.923755  -0.653108
    16  H   -0.022203   0.003844  -0.000424   0.000680  -0.012447   0.025475
    17  H    0.006022  -0.006625   0.008374  -0.002494   0.003561  -0.002204
    18  H   -0.000058   0.003695   0.006867  -0.023788   0.008933  -0.002954
    19  H   -0.000067   0.003719   0.006843  -0.023750   0.008903  -0.002944
               7          8          9         10         11         12
     1  C   -0.411764   0.027601   0.016679   0.113451   0.018232   0.720929
     2  C   -0.102978  -0.045312  -0.006681  -0.227464  -0.073440  -0.696643
     3  C    0.140744  -0.002614  -0.003164  -0.041430   0.128853   0.090961
     4  C    0.026164  -0.011843  -0.004294  -0.368304  -0.105440  -0.022831
     5  C   -0.704040   0.045906  -0.072995   0.075389   0.013908   0.092629
     6  C   -0.617925  -0.222677  -0.021505  -0.047544  -0.006973  -0.524339
     7  C    7.375305  -0.061951   0.022455  -0.000095   0.006127   0.219176
     8  O   -0.061951   9.361284  -0.111455   0.000684   0.000038   0.051970
     9  O    0.022455  -0.111455   8.641467   0.000606   0.000543   0.004808
    10  O   -0.000095   0.000684   0.000606   9.232975   0.086084  -0.000544
    11  C    0.006127   0.000038   0.000543   0.086084   6.006590   0.002364
    12  H    0.219176   0.051970   0.004808  -0.000544   0.002364   1.290774
    13  H   -0.028029  -0.010327  -0.001311   0.000756  -0.013285  -0.195426
    14  H   -0.047487   0.000634  -0.004714  -0.033575  -0.154625  -0.008764
    15  H    0.072622   0.007100  -0.022486  -0.005584   0.004426   0.011933
    16  H    0.076481  -0.102013   0.153469  -0.000040   0.000006  -0.004278
    17  H    0.000089  -0.000007   0.000019  -0.032218   0.386455   0.000072
    18  H    0.000569   0.000009   0.000051  -0.007259   0.352147   0.000348
    19  H    0.000565   0.000009   0.000051  -0.007174   0.352108   0.000345
              13         14         15         16         17         18
     1  C   -0.574179  -0.058296   0.142708  -0.022203   0.006022  -0.000058
     2  C    0.722967   0.012002  -0.031264   0.003844  -0.006625   0.003695
     3  C   -0.359970  -0.662468   0.188205  -0.000424   0.008374   0.006867
     4  C    0.055933   0.948865  -0.807333   0.000680  -0.002494  -0.023788
     5  C   -0.007492  -0.973014   0.923755  -0.012447   0.003561   0.008933
     6  C    0.067590   0.209367  -0.653108   0.025475  -0.002204  -0.002954
     7  C   -0.028029  -0.047487   0.072622   0.076481   0.000089   0.000569
     8  O   -0.010327   0.000634   0.007100  -0.102013  -0.000007   0.000009
     9  O   -0.001311  -0.004714  -0.022486   0.153469   0.000019   0.000051
    10  O    0.000756  -0.033575  -0.005584  -0.000040  -0.032218  -0.007259
    11  C   -0.013285  -0.154625   0.004426   0.000006   0.386455   0.352147
    12  H   -0.195426  -0.008764   0.011933  -0.004278   0.000072   0.000348
    13  H    1.026825   0.008975  -0.006203   0.000328  -0.001465  -0.000610
    14  H    0.008975   1.897747  -0.288597   0.000051  -0.006696  -0.038556
    15  H   -0.006203  -0.288597   1.530560  -0.008015   0.001104   0.000501
    16  H    0.000328   0.000051  -0.008015   0.598138  -0.000004   0.000005
    17  H   -0.001465  -0.006696   0.001104  -0.000004   0.378202  -0.015439
    18  H   -0.000610  -0.038556   0.000501   0.000005  -0.015439   0.355273
    19  H   -0.000594  -0.038470   0.000494   0.000005  -0.015456   0.005853
              19
     1  C   -0.000067
     2  C    0.003719
     3  C    0.006843
     4  C   -0.023750
     5  C    0.008903
     6  C   -0.002944
     7  C    0.000565
     8  O    0.000009
     9  O    0.000051
    10  O   -0.007174
    11  C    0.352108
    12  H    0.000345
    13  H   -0.000594
    14  H   -0.038470
    15  H    0.000494
    16  H    0.000005
    17  H   -0.015456
    18  H    0.005853
    19  H    0.355226
 Mulliken charges:
               1
     1  C   -1.037026
     2  C   -0.157014
     3  C    0.970234
     4  C    0.162301
     5  C   -0.869984
     6  C    2.401696
     7  C    0.033968
     8  O   -0.927037
     9  O   -0.591543
    10  O   -0.738710
    11  C   -1.004119
    12  H   -0.033485
    13  H    0.315515
    14  H    0.237621
    15  H   -0.060817
    16  H    0.290943
    17  H    0.298710
    18  H    0.354413
    19  H    0.354333
 Sum of Mulliken charges =   0.00000
 Mulliken charges with hydrogens summed into heavy atoms:
               1
     1  C   -1.070511
     2  C    0.158501
     3  C    0.970234
     4  C    0.399922
     5  C   -0.930802
     6  C    2.401696
     7  C    0.033968
     8  O   -0.927037
     9  O   -0.300599
    10  O   -0.738710
    11  C    0.003337
 Electronic spatial extent (au):  <R**2>=           2087.3850
 Charge=              0.0000 electrons
 Dipole moment (field-independent basis, Debye):
    X=             -3.0235    Y=             -2.2442    Z=              0.0006  Tot=              3.7654
 Quadrupole moment (field-independent basis, Debye-Ang):
   XX=            -58.9073   YY=            -61.9050   ZZ=            -65.3173
   XY=             -1.4875   XZ=             -0.0039   YZ=              0.0001
 Traceless Quadrupole moment (field-independent basis, Debye-Ang):
   XX=              3.1359   YY=              0.1382   ZZ=             -3.2741
   XY=             -1.4875   XZ=             -0.0039   YZ=              0.0001
 Octapole moment (field-independent basis, Debye-Ang**2):
  XXX=            -17.4519  YYY=              3.8581  ZZZ=              0.0022  XYY=             -5.8738
  XXY=            -45.6725  XXZ=              0.0093  XZZ=              3.4956  YZZ=             -1.2024
  YYZ=             -0.0010  XYZ=             -0.0041
 Hexadecapole moment (field-independent basis, Debye-Ang**3):
 XXXX=          -1836.6571 YYYY=           -403.0945 ZZZZ=            -74.4052 XXXY=            -91.4988
 XXXZ=             -0.0490 YYYX=             -9.6381 YYYZ=              0.0056 ZZZX=              0.0006
 ZZZY=             -0.0020 XXYY=           -447.0386 XXZZ=           -370.3511 YYZZ=            -89.4845
 XXYZ=             -0.0040 YYXZ=              0.0045 ZZXY=             -0.2671
 N-N= 5.871279012008D+02 E-N=-2.425469923728D+03  KE= 5.333569355923D+02
 ******************************Gaussian NBO Version 3.1******************************
             N A T U R A L   A T O M I C   O R B I T A L   A N D
          N A T U R A L   B O N D   O R B I T A L   A N A L Y S I S
 ******************************Gaussian NBO Version 3.1******************************
       /RESON  / : Allow strongly delocalized NBO set

 Analyzing the SCF density

 Job title: p-OMe                                                           

 Storage needed:   1431180 in NPA,   1906877 in NBO (********** available)
 GSVD:  LWork=       24858 too small for GESVD, short by      873369 words or      873369 for optimal perf.
 Remove ICRem=  192 ICRemI=  193 L=1 PNAO number  200 atom    5 type 153 NPNAO=  690
   due to symmetric orthogonalization 2, value= 0.00D+00.
 Remove ICRem=  192 ICRemI=  193 L=1 PNAO number  196 atom    5 type 152 NPNAO=  689
   due to symmetric orthogonalization 2, value= 0.00D+00.
 Remove ICRem=  192 ICRemI=  193 L=1 PNAO number  192 atom    5 type 151 NPNAO=  688
   due to symmetric orthogonalization 2, value= 0.00D+00.
 GSVD:  LWork=       30540 too small for GESVD, short by      856350 words or      856350 for optimal perf.

 Computed number of electrons   79.99995094 does not match expected value of    80.


 NATURAL POPULATIONS:  Natural atomic orbital occupancies 
                                                          
   NAO  Atom  No  lang   Type(AO)    Occupancy      Energy
 ----------------------------------------------------------
     1    C    1  S      Cor( 1S)     1.99908     -10.38447
     2    C    1  S      Val( 2S)     0.94039      -0.17461
     3    C    1  S      Ryd( 3S)     0.00137       1.94905
     4    C    1  S      Ryd( 5S)     0.00010       2.34849
     5    C    1  S      Ryd( 4S)     0.00003       2.29382
     6    C    1  px     Val( 2p)     1.08364      -0.06485
     7    C    1  px     Ryd( 4p)     0.00414       1.95860
     8    C    1  px     Ryd( 5p)     0.00012       2.71012
     9    C    1  px     Ryd( 3p)     0.00008       1.02837
    10    C    1  py     Val( 2p)     1.13247      -0.06536
    11    C    1  py     Ryd( 4p)     0.00459       1.88308
    12    C    1  py     Ryd( 5p)     0.00006       2.44989
    13    C    1  py     Ryd( 3p)     0.00004       1.20072
    14    C    1  pz     Val( 2p)     0.93195      -0.11744
    15    C    1  pz     Ryd( 4p)     0.00050       1.05021
    16    C    1  pz     Ryd( 5p)     0.00009       1.74771
    17    C    1  pz     Ryd( 3p)     0.00005       0.62861
    18    C    1  dxy    Ryd( 3d)     0.00174       2.72900
    19    C    1  dxy    Ryd( 5d)     0.00008       4.08069
    20    C    1  dxy    Ryd( 4d)     0.00007       3.18435
    21    C    1  dxz    Ryd( 3d)     0.00065       1.63546
    22    C    1  dxz    Ryd( 5d)     0.00004       3.23485
    23    C    1  dxz    Ryd( 4d)     0.00005       1.83037
    24    C    1  dyz    Ryd( 3d)     0.00051       1.35688
    25    C    1  dyz    Ryd( 5d)     0.00005       3.26533
    26    C    1  dyz    Ryd( 4d)     0.00003       1.61579
    27    C    1  dx2y2  Ryd( 4d)     0.00209       3.78547
    28    C    1  dx2y2  Ryd( 5d)     0.00026       4.47603
    29    C    1  dx2y2  Ryd( 3d)     0.00007       2.47690
    30    C    1  dz2    Ryd( 3d)     0.00089       2.02658
    31    C    1  dz2    Ryd( 5d)     0.00011       4.03394
    32    C    1  dz2    Ryd( 4d)     0.00008       3.90148
    33    C    1  f(0)   Ryd( 4f)     0.00006       1.52307
    34    C    1  f(0)   Ryd( 5f)     0.00012       3.44322
    35    C    1  f(C1)  Ryd( 4f)     0.00043       2.02706
    36    C    1  f(C1)  Ryd( 5f)     0.00026       3.62993
    37    C    1  f(S1)  Ryd( 4f)     0.00055       1.95279
    38    C    1  f(S1)  Ryd( 5f)     0.00018       3.52421
    39    C    1  f(C2)  Ryd( 4f)     0.00031       1.56316
    40    C    1  f(C2)  Ryd( 5f)     0.00003       3.49269
    41    C    1  f(S2)  Ryd( 4f)     0.00011       1.57785
    42    C    1  f(S2)  Ryd( 5f)     0.00003       3.44832
    43    C    1  f(C3)  Ryd( 4f)     0.00032       3.66979
    44    C    1  f(C3)  Ryd( 5f)     0.00013       4.09561
    45    C    1  f(S3)  Ryd( 4f)     0.00114       2.00241
    46    C    1  f(S3)  Ryd( 5f)     0.00027       4.43780
 
    47    C    2  S      Cor( 1S)     1.99904     -10.37778
    48    C    2  S      Val( 2S)     0.94666      -0.18375
    49    C    2  S      Ryd( 3S)     0.00138       1.85249
    50    C    2  S      Ryd( 5S)     0.00012       2.80713
    51    C    2  S      Ryd( 4S)     0.00002       2.12202
    52    C    2  px     Val( 2p)     1.09486      -0.07679
    53    C    2  px     Ryd( 4p)     0.00431       1.91251
    54    C    2  px     Ryd( 5p)     0.00017       2.26613
    55    C    2  px     Ryd( 3p)     0.00003       1.32682
    56    C    2  py     Val( 2p)     1.15198      -0.08951
    57    C    2  py     Ryd( 4p)     0.00428       1.81462
    58    C    2  py     Ryd( 5p)     0.00009       2.21478
    59    C    2  py     Ryd( 3p)     0.00004       1.26196
    60    C    2  pz     Val( 2p)     1.03154      -0.12730
    61    C    2  pz     Ryd( 4p)     0.00077       1.01165
    62    C    2  pz     Ryd( 5p)     0.00007       1.48126
    63    C    2  pz     Ryd( 3p)     0.00007       0.86283
    64    C    2  dxy    Ryd( 3d)     0.00284       2.82929
    65    C    2  dxy    Ryd( 5d)     0.00016       4.06322
    66    C    2  dxy    Ryd( 4d)     0.00007       2.85679
    67    C    2  dxz    Ryd( 3d)     0.00040       1.52742
    68    C    2  dxz    Ryd( 5d)     0.00005       3.22441
    69    C    2  dxz    Ryd( 4d)     0.00003       1.78099
    70    C    2  dyz    Ryd( 3d)     0.00048       1.36230
    71    C    2  dyz    Ryd( 5d)     0.00003       3.32757
    72    C    2  dyz    Ryd( 4d)     0.00011       1.52639
    73    C    2  dx2y2  Ryd( 4d)     0.00199       2.87035
    74    C    2  dx2y2  Ryd( 5d)     0.00021       4.17530
    75    C    2  dx2y2  Ryd( 3d)     0.00009       2.37282
    76    C    2  dz2    Ryd( 3d)     0.00142       1.76061
    77    C    2  dz2    Ryd( 5d)     0.00015       4.14961
    78    C    2  dz2    Ryd( 4d)     0.00006       3.71435
    79    C    2  f(0)   Ryd( 4f)     0.00037       1.81016
    80    C    2  f(0)   Ryd( 5f)     0.00010       3.13821
    81    C    2  f(C1)  Ryd( 4f)     0.00065       2.37797
    82    C    2  f(C1)  Ryd( 5f)     0.00016       3.33965
    83    C    2  f(S1)  Ryd( 4f)     0.00057       2.15467
    84    C    2  f(S1)  Ryd( 5f)     0.00011       3.20153
    85    C    2  f(C2)  Ryd( 4f)     0.00011       1.93860
    86    C    2  f(C2)  Ryd( 5f)     0.00005       3.03850
    87    C    2  f(S2)  Ryd( 4f)     0.00009       1.90171
    88    C    2  f(S2)  Ryd( 5f)     0.00008       3.07337
    89    C    2  f(C3)  Ryd( 4f)     0.00062       3.40481
    90    C    2  f(C3)  Ryd( 5f)     0.00015       4.06932
    91    C    2  f(S3)  Ryd( 4f)     0.00065       2.40465
    92    C    2  f(S3)  Ryd( 5f)     0.00043       3.78055
 
    93    C    3  S      Cor( 1S)     1.99852     -10.46155
    94    C    3  S      Val( 2S)     0.83229      -0.12528
    95    C    3  S      Ryd( 3S)     0.00121       2.10805
    96    C    3  S      Ryd( 4S)     0.00010       2.33731
    97    C    3  S      Ryd( 5S)     0.00002       2.57040
    98    C    3  px     Val( 2p)     0.78693      -0.04171
    99    C    3  px     Ryd( 4p)     0.00528       1.74439
   100    C    3  px     Ryd( 5p)     0.00006       1.88201
   101    C    3  px     Ryd( 3p)     0.00003       1.67473
   102    C    3  py     Val( 2p)     1.08548      -0.08405
   103    C    3  py     Ryd( 5p)     0.00448       1.85382
   104    C    3  py     Ryd( 3p)     0.00012       1.29560
   105    C    3  py     Ryd( 4p)     0.00003       1.49110
   106    C    3  pz     Val( 2p)     0.93459      -0.13131
   107    C    3  pz     Ryd( 3p)     0.00060       0.96283
   108    C    3  pz     Ryd( 4p)     0.00016       1.10890
   109    C    3  pz     Ryd( 5p)     0.00005       1.11688
   110    C    3  dxy    Ryd( 3d)     0.00203       3.24691
   111    C    3  dxy    Ryd( 4d)     0.00020       3.49426
   112    C    3  dxy    Ryd( 5d)     0.00008       4.74652
   113    C    3  dxz    Ryd( 3d)     0.00246       1.46516
   114    C    3  dxz    Ryd( 4d)     0.00003       2.52121
   115    C    3  dxz    Ryd( 5d)     0.00006       2.61295
   116    C    3  dyz    Ryd( 3d)     0.00125       1.67470
   117    C    3  dyz    Ryd( 4d)     0.00010       2.48776
   118    C    3  dyz    Ryd( 5d)     0.00002       2.70769
   119    C    3  dx2y2  Ryd( 3d)     0.00054       3.07135
   120    C    3  dx2y2  Ryd( 4d)     0.00027       3.59303
   121    C    3  dx2y2  Ryd( 5d)     0.00005       3.82445
   122    C    3  dz2    Ryd( 3d)     0.00062       2.12561
   123    C    3  dz2    Ryd( 5d)     0.00037       3.91868
   124    C    3  dz2    Ryd( 4d)     0.00007       3.48991
   125    C    3  f(0)   Ryd( 4f)     0.00001       1.50112
   126    C    3  f(0)   Ryd( 5f)     0.00019       3.69206
   127    C    3  f(C1)  Ryd( 4f)     0.00067       1.75256
   128    C    3  f(C1)  Ryd( 5f)     0.00022       3.80507
   129    C    3  f(S1)  Ryd( 4f)     0.00038       1.77161
   130    C    3  f(S1)  Ryd( 5f)     0.00026       3.82968
   131    C    3  f(C2)  Ryd( 4f)     0.00043       1.38831
   132    C    3  f(C2)  Ryd( 5f)     0.00005       3.77883
   133    C    3  f(S2)  Ryd( 4f)     0.00041       1.39665
   134    C    3  f(S2)  Ryd( 5f)     0.00001       3.76079
   135    C    3  f(C3)  Ryd( 4f)     0.00055       3.00461
   136    C    3  f(C3)  Ryd( 5f)     0.00007       4.52235
   137    C    3  f(S3)  Ryd( 4f)     0.00204       2.26801
   138    C    3  f(S3)  Ryd( 5f)     0.00010       4.92344
 
   139    C    4  S      Cor( 1S)     1.99904     -10.38106
   140    C    4  S      Val( 2S)     0.94577      -0.18329
   141    C    4  S      Ryd( 3S)     0.00235       1.58252
   142    C    4  S      Ryd( 5S)     0.00014       2.53992
   143    C    4  S      Ryd( 4S)     0.00003       2.41349
   144    C    4  px     Val( 2p)     1.12089      -0.09241
   145    C    4  px     Ryd( 4p)     0.00321       1.79650
   146    C    4  px     Ryd( 3p)     0.00016       1.12941
   147    C    4  px     Ryd( 5p)     0.00008       2.99253
   148    C    4  py     Val( 2p)     1.14731      -0.09043
   149    C    4  py     Ryd( 3p)     0.00562       1.50554
   150    C    4  py     Ryd( 4p)     0.00016       1.62824
   151    C    4  py     Ryd( 5p)     0.00005       2.45578
   152    C    4  pz     Val( 2p)     1.07055      -0.13850
   153    C    4  pz     Ryd( 3p)     0.00140       0.80452
   154    C    4  pz     Ryd( 4p)     0.00050       1.53991
   155    C    4  pz     Ryd( 5p)     0.00010       1.73295
   156    C    4  dxy    Ryd( 3d)     0.00181       2.48182
   157    C    4  dxy    Ryd( 5d)     0.00014       3.93686
   158    C    4  dxy    Ryd( 4d)     0.00006       3.27891
   159    C    4  dxz    Ryd( 3d)     0.00020       1.46675
   160    C    4  dxz    Ryd( 5d)     0.00018       2.93708
   161    C    4  dxz    Ryd( 4d)     0.00007       2.01330
   162    C    4  dyz    Ryd( 3d)     0.00058       1.39231
   163    C    4  dyz    Ryd( 5d)     0.00005       3.12225
   164    C    4  dyz    Ryd( 4d)     0.00005       1.70996
   165    C    4  dx2y2  Ryd( 4d)     0.00176       3.35608
   166    C    4  dx2y2  Ryd( 5d)     0.00027       3.92247
   167    C    4  dx2y2  Ryd( 3d)     0.00006       2.75751
   168    C    4  dz2    Ryd( 3d)     0.00109       1.65853
   169    C    4  dz2    Ryd( 5d)     0.00019       4.39356
   170    C    4  dz2    Ryd( 4d)     0.00005       3.69189
   171    C    4  f(0)   Ryd( 4f)     0.00039       1.73384
   172    C    4  f(0)   Ryd( 5f)     0.00013       3.19516
   173    C    4  f(C1)  Ryd( 4f)     0.00085       2.31072
   174    C    4  f(C1)  Ryd( 5f)     0.00011       3.32446
   175    C    4  f(S1)  Ryd( 4f)     0.00069       2.18724
   176    C    4  f(S1)  Ryd( 5f)     0.00013       3.25821
   177    C    4  f(C2)  Ryd( 4f)     0.00009       1.83512
   178    C    4  f(C2)  Ryd( 5f)     0.00004       3.13373
   179    C    4  f(S2)  Ryd( 4f)     0.00018       1.87144
   180    C    4  f(S2)  Ryd( 5f)     0.00011       3.09709
   181    C    4  f(C3)  Ryd( 4f)     0.00044       3.48466
   182    C    4  f(C3)  Ryd( 5f)     0.00020       4.19398
   183    C    4  f(S3)  Ryd( 4f)     0.00067       2.28678
   184    C    4  f(S3)  Ryd( 5f)     0.00025       3.80281
 
   185    C    5  S      Cor( 1S)     1.99910     -10.38672
   186    C    5  S      Val( 2S)     0.93647      -0.17817
   187    C    5  S      Ryd( 3S)     0.00116       1.96138
   188    C    5  S      Ryd( 4S)     0.00015       2.03655
   189    C    5  S      Ryd( 5S)     0.00004       2.72233
   190    C    5  px     Val( 2p)     1.05539      -0.06941
   191    C    5  px     Ryd( 3p)     0.00238       1.85694
   192    C    5  px     Ryd( 4p)     0.00006       2.28579
   193    C    5  py     Val( 2p)     1.13939      -0.07434
   194    C    5  py     Ryd( 3p)     0.00401       1.66108
   195    C    5  py     Ryd( 4p)     0.00006       2.11139
   196    C    5  pz     Val( 2p)     0.93175      -0.12467
   197    C    5  pz     Ryd( 3p)     0.00072       1.04098
   198    C    5  pz     Ryd( 4p)     0.00008       1.40884
   199    C    5  dxy    Ryd( 4d)     0.00177       3.11854
   200    C    5  dxy    Ryd( 5d)     0.00021       4.00688
   201    C    5  dxy    Ryd( 3d)     0.00005       3.03752
   202    C    5  dxz    Ryd( 3d)     0.00075       1.54833
   203    C    5  dxz    Ryd( 5d)     0.00005       3.08446
   204    C    5  dxz    Ryd( 4d)     0.00009       2.01118
   205    C    5  dyz    Ryd( 3d)     0.00098       1.27904
   206    C    5  dyz    Ryd( 5d)     0.00005       3.14112
   207    C    5  dyz    Ryd( 4d)     0.00004       1.74885
   208    C    5  dx2y2  Ryd( 4d)     0.00186       3.24471
   209    C    5  dx2y2  Ryd( 5d)     0.00023       4.17159
   210    C    5  dx2y2  Ryd( 3d)     0.00007       3.01166
   211    C    5  dz2    Ryd( 3d)     0.00108       1.81232
   212    C    5  dz2    Ryd( 5d)     0.00013       4.10042
   213    C    5  dz2    Ryd( 4d)     0.00008       3.99381
   214    C    5  f(0)   Ryd( 4f)     0.00045       1.53525
   215    C    5  f(0)   Ryd( 5f)     0.00006       3.40349
   216    C    5  f(C1)  Ryd( 4f)     0.00082       2.08732
   217    C    5  f(C1)  Ryd( 5f)     0.00016       3.63435
   218    C    5  f(S1)  Ryd( 4f)     0.00108       1.93378
   219    C    5  f(S1)  Ryd( 5f)     0.00009       3.48573
   220    C    5  f(C2)  Ryd( 4f)     0.00041       1.53638
   221    C    5  f(C2)  Ryd( 5f)     0.00004       3.46847
   222    C    5  f(S2)  Ryd( 4f)     0.00019       1.56101
   223    C    5  f(S2)  Ryd( 5f)     0.00001       3.41257
   224    C    5  f(C3)  Ryd( 4f)     0.00044       3.49030
   225    C    5  f(C3)  Ryd( 5f)     0.00014       4.10953
   226    C    5  f(S3)  Ryd( 4f)     0.00130       1.92417
   227    C    5  f(S3)  Ryd( 5f)     0.00025       4.42239
 
   228    C    6  S      Cor( 1S)     1.99885     -10.36184
   229    C    6  S      Val( 2S)     0.88507      -0.10373
   230    C    6  S      Ryd( 3S)     0.00161       1.91342
   231    C    6  S      Ryd( 4S)     0.00013       2.34917
   232    C    6  S      Ryd( 5S)     0.00003       4.14846
   233    C    6  px     Val( 2p)     1.10591      -0.10500
   234    C    6  px     Ryd( 4p)     0.00637       2.33504
   235    C    6  px     Ryd( 3p)     0.00016       0.97263
   236    C    6  px     Ryd( 5p)     0.00006       2.65782
   237    C    6  py     Val( 2p)     1.14530      -0.10703
   238    C    6  py     Ryd( 4p)     0.00561       1.97408
   239    C    6  py     Ryd( 3p)     0.00016       1.09149
   240    C    6  py     Ryd( 5p)     0.00010       2.33939
   241    C    6  pz     Val( 2p)     1.09728      -0.13346
   242    C    6  pz     Ryd( 3p)     0.00180       0.88761
   243    C    6  pz     Ryd( 4p)     0.00030       1.02157
   244    C    6  pz     Ryd( 5p)     0.00013       2.08743
   245    C    6  dxy    Ryd( 3d)     0.00082       2.76184
   246    C    6  dxy    Ryd( 4d)     0.00035       3.89618
   247    C    6  dxy    Ryd( 5d)     0.00008       5.86275
   248    C    6  dxz    Ryd( 3d)     0.00062       1.23822
   249    C    6  dxz    Ryd( 5d)     0.00025       3.21090
   250    C    6  dxz    Ryd( 4d)     0.00014       2.30998
   251    C    6  dyz    Ryd( 3d)     0.00030       1.04588
   252    C    6  dyz    Ryd( 5d)     0.00018       3.15445
   253    C    6  dyz    Ryd( 4d)     0.00003       2.74190
   254    C    6  dx2y2  Ryd( 3d)     0.00244       2.60400
   255    C    6  dx2y2  Ryd( 4d)     0.00042       4.11041
   256    C    6  dx2y2  Ryd( 5d)     0.00002       4.89404
   257    C    6  dz2    Ryd( 3d)     0.00125       1.27233
   258    C    6  dz2    Ryd( 5d)     0.00020       4.58584
   259    C    6  dz2    Ryd( 4d)     0.00005       3.89763
   260    C    6  f(0)   Ryd( 4f)     0.00038       1.59319
   261    C    6  f(0)   Ryd( 5f)     0.00026       3.46038
   262    C    6  f(C1)  Ryd( 4f)     0.00049       2.07785
   263    C    6  f(C1)  Ryd( 5f)     0.00053       3.62351
   264    C    6  f(S1)  Ryd( 4f)     0.00094       1.94389
   265    C    6  f(S1)  Ryd( 5f)     0.00029       3.59732
   266    C    6  f(C2)  Ryd( 4f)     0.00070       1.62274
   267    C    6  f(C2)  Ryd( 5f)     0.00005       3.37686
   268    C    6  f(S2)  Ryd( 4f)     0.00080       1.51865
   269    C    6  f(S2)  Ryd( 5f)     0.00006       3.45991
   270    C    6  f(C3)  Ryd( 4f)     0.00124       3.11727
   271    C    6  f(C3)  Ryd( 5f)     0.00013       4.57506
   272    C    6  f(S3)  Ryd( 4f)     0.00216       2.56640
   273    C    6  f(S3)  Ryd( 5f)     0.00025       4.35650
 
   274    C    7  S      Cor( 1S)     1.99907     -10.52703
   275    C    7  S      Val( 2S)     0.77848      -0.09093
   276    C    7  S      Ryd( 3S)     0.00379       2.04145
   277    C    7  S      Ryd( 4S)     0.00021       2.13288
   278    C    7  S      Ryd( 5S)     0.00007       2.40707
   279    C    7  px     Val( 2p)     0.91875      -0.03570
   280    C    7  px     Ryd( 5p)     0.00677       1.60978
   281    C    7  px     Ryd( 3p)     0.00025       0.93403
   282    C    7  px     Ryd( 4p)     0.00002       1.58752
   283    C    7  py     Val( 2p)     0.72211      -0.01692
   284    C    7  py     Ryd( 4p)     0.01246       1.59172
   285    C    7  py     Ryd( 3p)     0.00013       0.94991
   286    C    7  py     Ryd( 5p)     0.00009       2.37966
   287    C    7  pz     Val( 2p)     0.75550      -0.11630
   288    C    7  pz     Ryd( 4p)     0.00054       1.12982
   289    C    7  pz     Ryd( 3p)     0.00012       0.60804
   290    C    7  pz     Ryd( 5p)     0.00002       1.27049
   291    C    7  dxy    Ryd( 5d)     0.00056       4.21304
   292    C    7  dxy    Ryd( 3d)     0.00005       3.22945
   293    C    7  dxy    Ryd( 4d)     0.00005       3.82095
   294    C    7  dxz    Ryd( 5d)     0.00067       3.29866
   295    C    7  dxz    Ryd( 4d)     0.00008       2.01755
   296    C    7  dxz    Ryd( 3d)     0.00009       1.81360
   297    C    7  dyz    Ryd( 5d)     0.00129       3.35007
   298    C    7  dyz    Ryd( 4d)     0.00003       2.19505
   299    C    7  dyz    Ryd( 3d)     0.00001       2.04457
   300    C    7  dx2y2  Ryd( 5d)     0.00164       4.30109
   301    C    7  dx2y2  Ryd( 4d)     0.00006       3.29502
   302    C    7  dx2y2  Ryd( 3d)     0.00004       2.50664
   303    C    7  dz2    Ryd( 5d)     0.00017       4.40507
   304    C    7  dz2    Ryd( 4d)     0.00017       3.56735
   305    C    7  dz2    Ryd( 3d)     0.00008       3.21857
   306    C    7  f(0)   Ryd( 5f)     0.00011       3.35726
   307    C    7  f(0)   Ryd( 4f)     0.00003       2.64304
   308    C    7  f(C1)  Ryd( 5f)     0.00018       3.71864
   309    C    7  f(C1)  Ryd( 4f)     0.00001       3.44802
   310    C    7  f(S1)  Ryd( 5f)     0.00007       3.56825
   311    C    7  f(S1)  Ryd( 4f)     0.00004       3.39916
   312    C    7  f(C2)  Ryd( 5f)     0.00002       3.27952
   313    C    7  f(C2)  Ryd( 4f)     0.00010       2.81587
   314    C    7  f(S2)  Ryd( 5f)     0.00002       3.52586
   315    C    7  f(S2)  Ryd( 4f)     0.00001       2.99458
   316    C    7  f(C3)  Ryd( 4f)     0.00005       4.64111
   317    C    7  f(C3)  Ryd( 5f)     0.00003       8.18838
   318    C    7  f(S3)  Ryd( 4f)     0.00010       4.42222
   319    C    7  f(S3)  Ryd( 5f)     0.00003       4.48847
 
   320    O    8  S      Cor( 1S)     1.99979     -19.31552
   321    O    8  S      Val( 2S)     1.70543      -0.99068
   322    O    8  S      Ryd( 4S)     0.00055       2.93709
   323    O    8  S      Ryd( 3S)     0.00022       1.48490
   324    O    8  S      Ryd( 5S)     0.00001       8.72610
   325    O    8  px     Val( 2p)     1.73677      -0.32873
   326    O    8  px     Ryd( 4p)     0.00099       1.26063
   327    O    8  px     Ryd( 3p)     0.00007       0.59638
   328    O    8  px     Ryd( 5p)     0.00004       5.04022
   329    O    8  py     Val( 2p)     1.68165      -0.33032
   330    O    8  py     Ryd( 4p)     0.00153       1.26707
   331    O    8  py     Ryd( 3p)     0.00017       0.58609
   332    O    8  py     Ryd( 5p)     0.00004       5.37289
   333    O    8  pz     Val( 2p)     1.46600      -0.28162
   334    O    8  pz     Ryd( 4p)     0.00089       0.87178
   335    O    8  pz     Ryd( 3p)     0.00006       0.48158
   336    O    8  pz     Ryd( 5p)     0.00000       4.22969
   337    O    8  dxy    Ryd( 3d)     0.00813       2.06234
   338    O    8  dxy    Ryd( 4d)     0.00014       3.18562
   339    O    8  dxy    Ryd( 5d)     0.00002       6.66844
   340    O    8  dxz    Ryd( 3d)     0.00272       1.45387
   341    O    8  dxz    Ryd( 4d)     0.00001       1.66924
   342    O    8  dxz    Ryd( 5d)     0.00001       6.49619
   343    O    8  dyz    Ryd( 3d)     0.00437       1.50308
   344    O    8  dyz    Ryd( 4d)     0.00004       1.68680
   345    O    8  dyz    Ryd( 5d)     0.00003       6.46820
   346    O    8  dx2y2  Ryd( 3d)     0.00546       1.83229
   347    O    8  dx2y2  Ryd( 4d)     0.00005       2.01189
   348    O    8  dx2y2  Ryd( 5d)     0.00005       6.52269
   349    O    8  dz2    Ryd( 3d)     0.00277       1.64036
   350    O    8  dz2    Ryd( 4d)     0.00010       2.49831
   351    O    8  dz2    Ryd( 5d)     0.00001       6.59495
   352    O    8  f(0)   Ryd( 4f)     0.00013       3.15006
   353    O    8  f(0)   Ryd( 5f)     0.00000       5.50670
   354    O    8  f(C1)  Ryd( 4f)     0.00009       3.37966
   355    O    8  f(C1)  Ryd( 5f)     0.00001       5.63878
   356    O    8  f(S1)  Ryd( 4f)     0.00009       3.46802
   357    O    8  f(S1)  Ryd( 5f)     0.00001       5.72074
   358    O    8  f(C2)  Ryd( 4f)     0.00006       3.09193
   359    O    8  f(C2)  Ryd( 5f)     0.00002       5.72566
   360    O    8  f(S2)  Ryd( 4f)     0.00033       3.22659
   361    O    8  f(S2)  Ryd( 5f)     0.00001       5.58263
   362    O    8  f(C3)  Ryd( 4f)     0.00034       3.88325
   363    O    8  f(C3)  Ryd( 5f)     0.00001       6.04751
   364    O    8  f(S3)  Ryd( 4f)     0.00047       3.68300
   365    O    8  f(S3)  Ryd( 5f)     0.00002       5.97650
 
   366    O    9  S      Cor( 1S)     1.99978     -19.44946
   367    O    9  S      Val( 2S)     1.67665      -1.02644
   368    O    9  S      Ryd( 3S)     0.00042       1.65026
   369    O    9  S      Ryd( 4S)     0.00012       1.95410
   370    O    9  S      Ryd( 5S)     0.00001      10.06820
   371    O    9  px     Val( 2p)     1.50039      -0.35561
   372    O    9  px     Ryd( 4p)     0.00069       1.13374
   373    O    9  px     Ryd( 3p)     0.00011       0.68950
   374    O    9  px     Ryd( 5p)     0.00005       5.22970
   375    O    9  py     Val( 2p)     1.66084      -0.39050
   376    O    9  py     Ryd( 4p)     0.00084       1.00850
   377    O    9  py     Ryd( 3p)     0.00010       0.55590
   378    O    9  py     Ryd( 5p)     0.00007       5.13300
   379    O    9  pz     Val( 2p)     1.84899      -0.40499
   380    O    9  pz     Ryd( 4p)     0.00125       0.76783
   381    O    9  pz     Ryd( 3p)     0.00002       0.54007
   382    O    9  pz     Ryd( 5p)     0.00001       4.15601
   383    O    9  dxy    Ryd( 3d)     0.00518       1.87311
   384    O    9  dxy    Ryd( 4d)     0.00015       2.46708
   385    O    9  dxy    Ryd( 5d)     0.00003       6.74357
   386    O    9  dxz    Ryd( 3d)     0.00070       1.13211
   387    O    9  dxz    Ryd( 4d)     0.00006       1.92729
   388    O    9  dxz    Ryd( 5d)     0.00001       6.50577
   389    O    9  dyz    Ryd( 3d)     0.00452       1.32037
   390    O    9  dyz    Ryd( 4d)     0.00003       1.70536
   391    O    9  dyz    Ryd( 5d)     0.00004       6.52182
   392    O    9  dx2y2  Ryd( 3d)     0.00490       1.85880
   393    O    9  dx2y2  Ryd( 4d)     0.00008       2.12622
   394    O    9  dx2y2  Ryd( 5d)     0.00006       6.94951
   395    O    9  dz2    Ryd( 3d)     0.00300       1.50033
   396    O    9  dz2    Ryd( 4d)     0.00014       2.34004
   397    O    9  dz2    Ryd( 5d)     0.00001       6.74420
   398    O    9  f(0)   Ryd( 4f)     0.00054       2.77191
   399    O    9  f(0)   Ryd( 5f)     0.00001       5.94546
   400    O    9  f(C1)  Ryd( 4f)     0.00025       3.32312
   401    O    9  f(C1)  Ryd( 5f)     0.00001       6.22320
   402    O    9  f(S1)  Ryd( 4f)     0.00016       3.33760
   403    O    9  f(S1)  Ryd( 5f)     0.00001       6.12254
   404    O    9  f(C2)  Ryd( 4f)     0.00004       2.86665
   405    O    9  f(C2)  Ryd( 5f)     0.00001       6.09794
   406    O    9  f(S2)  Ryd( 4f)     0.00011       2.81297
   407    O    9  f(S2)  Ryd( 5f)     0.00001       5.98232
   408    O    9  f(C3)  Ryd( 4f)     0.00012       4.50708
   409    O    9  f(C3)  Ryd( 5f)     0.00006       6.58052
   410    O    9  f(S3)  Ryd( 4f)     0.00005       3.66989
   411    O    9  f(S3)  Ryd( 5f)     0.00001       6.42124
 
   412    O   10  S      Cor( 1S)     1.99975     -19.47158
   413    O   10  S      Val( 2S)     1.58864      -0.96463
   414    O   10  S      Ryd( 4S)     0.00205       2.45386
   415    O   10  S      Ryd( 3S)     0.00020       1.65877
   416    O   10  S      Ryd( 5S)     0.00001      10.90670
   417    O   10  px     Val( 2p)     1.38383      -0.34332
   418    O   10  px     Ryd( 4p)     0.00185       1.73727
   419    O   10  px     Ryd( 3p)     0.00016       1.29672
   420    O   10  px     Ryd( 5p)     0.00003       5.05044
   421    O   10  py     Val( 2p)     1.66926      -0.39198
   422    O   10  py     Ryd( 3p)     0.00239       1.28661
   423    O   10  py     Ryd( 4p)     0.00015       1.35635
   424    O   10  py     Ryd( 5p)     0.00008       4.45311
   425    O   10  pz     Val( 2p)     1.85034      -0.40128
   426    O   10  pz     Ryd( 3p)     0.00357       0.96258
   427    O   10  pz     Ryd( 4p)     0.00005       1.20835
   428    O   10  pz     Ryd( 5p)     0.00001       3.71500
   429    O   10  dxy    Ryd( 3d)     0.00322       2.23639
   430    O   10  dxy    Ryd( 4d)     0.00015       2.98137
   431    O   10  dxy    Ryd( 5d)     0.00006       6.61829
   432    O   10  dxz    Ryd( 3d)     0.00043       1.50978
   433    O   10  dxz    Ryd( 4d)     0.00025       2.42680
   434    O   10  dxz    Ryd( 5d)     0.00005       6.25485
   435    O   10  dyz    Ryd( 3d)     0.00291       1.34212
   436    O   10  dyz    Ryd( 4d)     0.00008       2.36466
   437    O   10  dyz    Ryd( 5d)     0.00001       6.08729
   438    O   10  dx2y2  Ryd( 3d)     0.00369       2.20168
   439    O   10  dx2y2  Ryd( 4d)     0.00022       3.25956
   440    O   10  dx2y2  Ryd( 5d)     0.00005       6.49905
   441    O   10  dz2    Ryd( 3d)     0.00269       1.69147
   442    O   10  dz2    Ryd( 4d)     0.00012       2.65751
   443    O   10  dz2    Ryd( 5d)     0.00002       6.46096
   444    O   10  f(0)   Ryd( 4f)     0.00048       2.80863
   445    O   10  f(0)   Ryd( 5f)     0.00002       6.15205
   446    O   10  f(C1)  Ryd( 4f)     0.00013       4.28391
   447    O   10  f(C1)  Ryd( 5f)     0.00004       6.52116
   448    O   10  f(S1)  Ryd( 4f)     0.00013       3.41592
   449    O   10  f(S1)  Ryd( 5f)     0.00002       6.30318
   450    O   10  f(C2)  Ryd( 4f)     0.00003       2.90775
   451    O   10  f(C2)  Ryd( 5f)     0.00001       6.31074
   452    O   10  f(S2)  Ryd( 4f)     0.00009       2.92240
   453    O   10  f(S2)  Ryd( 5f)     0.00002       6.41814
   454    O   10  f(C3)  Ryd( 4f)     0.00009       4.97360
   455    O   10  f(C3)  Ryd( 5f)     0.00006       6.76238
   456    O   10  f(S3)  Ryd( 4f)     0.00006       3.81850
   457    O   10  f(S3)  Ryd( 5f)     0.00008       6.64625
 
   458    C   11  S      Cor( 1S)     1.99943     -10.48740
   459    C   11  S      Val( 2S)     1.09361      -0.33360
   460    C   11  S      Ryd( 3S)     0.00178       1.03312
   461    C   11  S      Ryd( 5S)     0.00018       3.87642
   462    C   11  S      Ryd( 4S)     0.00006       3.34860
   463    C   11  px     Val( 2p)     1.03320      -0.12514
   464    C   11  px     Ryd( 4p)     0.00185       1.19458
   465    C   11  px     Ryd( 5p)     0.00021       2.22138
   466    C   11  px     Ryd( 3p)     0.00004       0.93501
   467    C   11  py     Val( 2p)     0.90250      -0.10099
   468    C   11  py     Ryd( 4p)     0.00361       0.94612
   469    C   11  py     Ryd( 5p)     0.00013       2.18871
   470    C   11  py     Ryd( 3p)     0.00008       0.60617
   471    C   11  pz     Val( 2p)     1.18094      -0.14176
   472    C   11  pz     Ryd( 4p)     0.00030       1.04791
   473    C   11  pz     Ryd( 5p)     0.00020       1.95702
   474    C   11  pz     Ryd( 3p)     0.00001       0.58273
   475    C   11  dxy    Ryd( 5d)     0.00055       3.87340
   476    C   11  dxy    Ryd( 3d)     0.00015       1.21311
   477    C   11  dxy    Ryd( 4d)     0.00001       3.33620
   478    C   11  dxz    Ryd( 4d)     0.00024       3.12762
   479    C   11  dxz    Ryd( 3d)     0.00010       1.22935
   480    C   11  dxz    Ryd( 5d)     0.00005       3.13919
   481    C   11  dyz    Ryd( 5d)     0.00159       3.39147
   482    C   11  dyz    Ryd( 3d)     0.00024       1.22178
   483    C   11  dyz    Ryd( 4d)     0.00000       3.14411
   484    C   11  dx2y2  Ryd( 4d)     0.00075       3.28602
   485    C   11  dx2y2  Ryd( 3d)     0.00002       1.26816
   486    C   11  dx2y2  Ryd( 5d)     0.00003       3.57947
   487    C   11  dz2    Ryd( 5d)     0.00062       3.59041
   488    C   11  dz2    Ryd( 3d)     0.00014       1.25501
   489    C   11  dz2    Ryd( 4d)     0.00001       3.35313
   490    C   11  f(0)   Ryd( 4f)     0.00003       2.19097
   491    C   11  f(0)   Ryd( 5f)     0.00001       3.53974
   492    C   11  f(C1)  Ryd( 4f)     0.00010       2.82183
   493    C   11  f(C1)  Ryd( 5f)     0.00001       3.68394
   494    C   11  f(S1)  Ryd( 4f)     0.00016       2.83498
   495    C   11  f(S1)  Ryd( 5f)     0.00013       3.80086
   496    C   11  f(C2)  Ryd( 4f)     0.00007       2.58495
   497    C   11  f(C2)  Ryd( 5f)     0.00001       3.55761
   498    C   11  f(S2)  Ryd( 4f)     0.00013       2.27526
   499    C   11  f(S2)  Ryd( 5f)     0.00002       3.48347
   500    C   11  f(C3)  Ryd( 4f)     0.00005       2.72930
   501    C   11  f(C3)  Ryd( 5f)     0.00006       3.69330
   502    C   11  f(S3)  Ryd( 4f)     0.00013       2.61494
   503    C   11  f(S3)  Ryd( 5f)     0.00006       3.59552
 
   504    H   12  S      Val( 1S)     0.75804       0.05646
   505    H   12  S      Ryd( 4S)     0.00049       2.00301
   506    H   12  S      Ryd( 2S)     0.00016       0.66641
   507    H   12  S      Ryd( 3S)     0.00005       1.72572
   508    H   12  px     Ryd( 2p)     0.00071       0.98663
   509    H   12  px     Ryd( 4p)     0.00012       4.22525
   510    H   12  px     Ryd( 3p)     0.00006       3.60328
   511    H   12  py     Ryd( 2p)     0.00084       0.98224
   512    H   12  py     Ryd( 3p)     0.00016       4.21750
   513    H   12  py     Ryd( 4p)     0.00006       4.29343
   514    H   12  pz     Ryd( 2p)     0.00015       0.68304
   515    H   12  pz     Ryd( 4p)     0.00003       3.92012
   516    H   12  pz     Ryd( 3p)     0.00006       2.16218
   517    H   12  dxy    Ryd( 3d)     0.00008       2.20802
   518    H   12  dxy    Ryd( 4d)     0.00004       4.62592
   519    H   12  dxz    Ryd( 3d)     0.00006       1.49649
   520    H   12  dxz    Ryd( 4d)     0.00001       3.89947
   521    H   12  dyz    Ryd( 3d)     0.00002       1.58808
   522    H   12  dyz    Ryd( 4d)     0.00001       4.04745
   523    H   12  dx2y2  Ryd( 3d)     0.00004       2.01485
   524    H   12  dx2y2  Ryd( 4d)     0.00002       4.70429
   525    H   12  dz2    Ryd( 3d)     0.00003       2.19049
   526    H   12  dz2    Ryd( 4d)     0.00002       4.33617
 
   527    H   13  S      Val( 1S)     0.77388       0.03749
   528    H   13  S      Ryd( 4S)     0.00041       2.05535
   529    H   13  S      Ryd( 2S)     0.00012       0.62963
   530    H   13  S      Ryd( 3S)     0.00004       1.85280
   531    H   13  px     Ryd( 2p)     0.00145       0.93389
   532    H   13  px     Ryd( 4p)     0.00009       4.23891
   533    H   13  px     Ryd( 3p)     0.00004       3.26928
   534    H   13  py     Ryd( 2p)     0.00082       1.02033
   535    H   13  py     Ryd( 4p)     0.00015       4.36185
   536    H   13  py     Ryd( 3p)     0.00003       4.19400
   537    H   13  pz     Ryd( 2p)     0.00036       0.69263
   538    H   13  pz     Ryd( 4p)     0.00002       3.90865
   539    H   13  pz     Ryd( 3p)     0.00007       2.06995
   540    H   13  dxy    Ryd( 3d)     0.00008       2.04370
   541    H   13  dxy    Ryd( 4d)     0.00003       4.63804
   542    H   13  dxz    Ryd( 3d)     0.00002       1.42526
   543    H   13  dxz    Ryd( 4d)     0.00001       3.85944
   544    H   13  dyz    Ryd( 3d)     0.00002       1.60959
   545    H   13  dyz    Ryd( 4d)     0.00003       4.08065
   546    H   13  dx2y2  Ryd( 3d)     0.00006       2.04926
   547    H   13  dx2y2  Ryd( 4d)     0.00003       4.67080
   548    H   13  dz2    Ryd( 3d)     0.00002       2.12294
   549    H   13  dz2    Ryd( 4d)     0.00002       4.31292
 
   550    H   14  S      Val( 1S)     0.78048       0.02772
   551    H   14  S      Ryd( 3S)     0.00038       1.51961
   552    H   14  S      Ryd( 2S)     0.00013       1.07191
   553    H   14  S      Ryd( 4S)     0.00003       2.25715
   554    H   14  px     Ryd( 2p)     0.00079       1.03570
   555    H   14  px     Ryd( 4p)     0.00010       4.21590
   556    H   14  px     Ryd( 3p)     0.00004       3.51537
   557    H   14  py     Ryd( 2p)     0.00040       0.99118
   558    H   14  py     Ryd( 3p)     0.00015       4.13363
   559    H   14  py     Ryd( 4p)     0.00004       4.73736
   560    H   14  pz     Ryd( 2p)     0.00113       0.60893
   561    H   14  pz     Ryd( 4p)     0.00002       3.99878
   562    H   14  pz     Ryd( 3p)     0.00003       2.21145
   563    H   14  dxy    Ryd( 3d)     0.00009       2.35133
   564    H   14  dxy    Ryd( 4d)     0.00003       4.57676
   565    H   14  dxz    Ryd( 3d)     0.00001       1.76783
   566    H   14  dxz    Ryd( 4d)     0.00000       3.75812
   567    H   14  dyz    Ryd( 3d)     0.00004       1.69198
   568    H   14  dyz    Ryd( 4d)     0.00002       3.94203
   569    H   14  dx2y2  Ryd( 3d)     0.00004       2.20869
   570    H   14  dx2y2  Ryd( 4d)     0.00002       4.53470
   571    H   14  dz2    Ryd( 3d)     0.00004       2.25625
   572    H   14  dz2    Ryd( 4d)     0.00001       4.26456
 
   573    H   15  S      Val( 1S)     0.77159       0.04734
   574    H   15  S      Ryd( 3S)     0.00065       1.62962
   575    H   15  S      Ryd( 2S)     0.00035       1.18444
   576    H   15  S      Ryd( 4S)     0.00003       1.81839
   577    H   15  px     Ryd( 2p)     0.00053       0.99878
[...]
 57,-0.04327551,0.17999894,-0.04956130,-0.05432111,0.02264063,-0.034978
 74,0.03757539,0.00596388,0.06608675,-0.00764983,-0.01898577,-0.1368657
 2,0.01975019,0.02101186,0.67079634,-0.00279824,0.05975926,-0.00464006,
 0.03217889,-0.03817880,-0.00602233,-0.06578807,-0.05224764,0.02536012,
 0.09056389,-0.33254424,0.00076680,0.01846747,0.71286650,0.01730889,0.0
 1093346,0.00038160,0.00652259,-0.00765370,-0.00356284,-0.01296926,0.00
 778687,0.00377207,0.01368363,0.02217179,-0.06702288,-0.16052292,-0.064
 23592,0.20122191,-0.21523029,-0.05729136,0.05098399,0.05272563,-0.0527
 2132,-0.00822828,-0.07159067,-0.01709710,0.02155396,0.00456642,0.08515
 094,-0.00767082,-0.30467034,0.02225445,0.07007196,0.67378792,-0.118595
 42,-0.20271050,0.04997611,-0.00115045,-0.05185752,0.00648562,-0.017380
 24,0.00912884,0.00367425,0.03089107,-0.00885623,-0.00755814,0.08297979
 ,-0.13672265,-0.01768343,-0.01233243,0.65800601,0.05732773,0.03144622,
 -0.08675165,-0.01356514,0.02207327,0.00926934,0.02158306,0.00358823,-0
 .01303191,-0.00205592,-0.02395885,0.01144138,0.06378808,0.00067192,-0.
 08457899,-0.15961335,-0.04971753,0.19490014,0.01810419,-0.01169746,-0.
 00418960,-0.00070823,-0.00907263,0.00321287,-0.00519693,0.00257601,0.0
 0116814,-0.00638681,0.00119011,0.00427765,-0.00356478,0.03059320,-0.00
 265145,-0.10266861,0.01751383,0.00451951,0.89058901,-0.00542409,-0.038
 37355,0.00563502,-0.00835722,0.00584511,0.00262613,0.00011772,-0.01308
 875,0.00127186,0.00180933,0.01218498,-0.00096200,0.02136679,-0.0127423
 5,-0.00533286,0.02794722,-0.20618257,0.00443269,-0.15671719,0.67850270
 ,-0.00483914,0.00753094,0.00092198,0.00313872,0.00284285,0.00557178,0.
 00142247,0.00052905,-0.00093546,0.00421353,-0.00077499,0.00697935,-0.0
 0169653,-0.00812132,-0.00050982,0.00344036,0.00758440,-0.08354404,-0.1
 8678063,-0.00016195,0.27553212,-0.00614644,-0.00823144,0.00275285,-0.0
 0082371,0.00317108,-0.00028962,0.00012728,-0.00443130,0.00044090,0.000
 81486,0.00330435,-0.00113791,0.00490857,0.00102998,-0.00057244,-0.0230
 2248,0.03274216,0.01011833,-0.62006518,0.21093580,0.14116398,0.7411848
 5,0.00271334,0.00093233,-0.00090181,0.00180522,-0.00002166,-0.00061537
 ,0.00135339,0.00443971,-0.00086124,0.00143865,-0.00428932,-0.00017913,
 -0.00580336,-0.00492409,0.00261207,0.04862319,-0.01922320,-0.01046835,
 0.20417849,-0.20175309,-0.04921641,-0.22844714,0.19232112,0.00162057,0
 .00240666,-0.00059549,-0.00014814,-0.00102839,-0.00054467,-0.00015764,
 0.00088726,0.00002506,-0.00094474,-0.00074311,-0.00145600,0.00013451,0
 .00054635,0.00326998,0.00847474,-0.00566685,0.01968157,0.14186367,-0.0
 5125965,-0.11846918,-0.19009986,0.05268978,0.08613937,0.00005610,0.002
 42177,0.00023193,0.00175024,0.00001181,-0.00065246,0.00007038,0.001939
 32,-0.00021906,0.00083173,-0.00200987,-0.00025453,-0.00466367,0.002488
 29,0.00131242,0.00888944,-0.00543326,0.00151524,-0.18611412,-0.0490543
 2,0.04138901,-0.09581376,-0.03397182,0.04144262,0.39179312,0.00675502,
 -0.00238085,-0.00162445,0.00050734,-0.00341541,0.00015829,-0.00190392,
 0.00362979,0.00020095,-0.00082081,-0.00163432,0.00034489,-0.00231473,-
 0.00311171,0.00107651,-0.03132011,-0.04105356,0.01496064,-0.07738497,-
 0.19556283,0.03679821,-0.02266651,0.03293798,0.00651244,-0.06592258,0.
 64876619,-0.00021637,-0.00031472,0.00175051,-0.00070376,0.00030796,-0.
 00022350,0.00017858,-0.00096076,0.00005484,-0.00037754,0.00070433,-0.0
 0065711,0.00180930,-0.00037538,0.00002173,0.00419381,0.00713656,0.0100
 3701,0.04431949,0.02823428,-0.08229566,0.04027331,0.00992979,0.0164582
 9,-0.10014590,-0.04327082,0.07267071,-0.00730169,-0.00783519,0.0043735
 9,-0.01206970,0.05929847,-0.00018466,-0.11041598,0.04548724,0.01404941
 ,0.01399634,-0.02321286,0.00157396,-0.00702719,0.00118260,0.00400326,0
 .00399687,0.00543405,-0.00195496,0.00101717,-0.00487825,-0.00001422,-0
 .00093280,0.00164389,0.00014442,0.00097915,0.00194962,-0.00047013,0.41
 270721,0.00004037,0.01099103,-0.00068501,0.02855854,-0.03893530,-0.003
 81499,0.01010915,-0.30583034,0.02358242,0.00000447,-0.05318081,0.00666
 573,-0.00599392,0.00616371,0.00185917,0.00156555,-0.01564914,0.0010829
 4,-0.00405302,0.01506754,-0.00040645,0.00467469,-0.00499191,-0.0008854
 0,-0.00197765,-0.00476381,0.00110009,-0.12998121,0.49459040,0.00355849
 ,0.00169642,0.00323428,0.00299687,-0.01310653,0.00806868,0.01770777,0.
 01289317,-0.05504128,-0.00082841,0.01368594,0.01009355,0.00474681,-0.0
 0031061,0.00521989,-0.00155549,-0.00008688,-0.00013132,-0.00009978,-0.
 00015691,-0.00065362,-0.00016914,0.00003080,0.00015565,-0.00006376,-0.
 00008694,0.00011945,-0.08934153,-0.00438682,0.10000027,-0.00033325,0.0
 0105690,0.00046720,0.00417836,-0.00372572,0.00010996,-0.01233940,0.025
 27073,-0.00028473,0.00372853,-0.00981562,-0.00064329,-0.00306809,0.002
 03227,0.00087971,0.00170383,-0.00419033,-0.00002198,-0.00107977,0.0050
 0476,-0.00030160,0.00132117,-0.00170630,-0.00020578,-0.00079668,-0.001
 74158,0.00041625,-0.22430590,0.05227775,0.04387230,0.49701099,0.001627
 33,-0.00103258,-0.00022233,-0.00329286,-0.00279539,0.00162290,0.044253
 96,-0.03078548,-0.01066562,0.00075004,-0.00106054,-0.00029881,0.001911
 76,-0.00027183,-0.00049393,-0.00022744,0.00176705,-0.00009377,0.000627
 71,-0.00199818,-0.00002074,-0.00063621,0.00063558,0.00013240,0.0002539
 3,0.00066955,-0.00014765,0.02185981,-0.09704870,-0.00289884,0.03584075
 ,0.62348482,0.00040823,-0.00005007,0.00145596,0.00006575,0.00175300,0.
 00306736,-0.00224780,-0.00492974,-0.00343853,-0.00173662,0.00289361,-0
 .00153558,0.00089168,-0.00053013,0.00032345,-0.00043167,0.00110399,0.0
 0021291,0.00015125,-0.00134345,-0.00027110,-0.00031641,0.00045572,0.00
 010486,0.00020974,0.00045542,-0.00012620,0.04701761,-0.01208878,-0.074
 17574,0.02116330,-0.01539914,0.57452727,-0.30130045,0.07942705,0.06995
 698,-0.00051809,0.00003567,0.00174911,0.00215971,0.00034209,0.00195664
 ,0.00056704,-0.00026263,-0.00042852,-0.00083637,-0.00357133,0.00227037
 ,-0.01549324,0.00746582,0.00542639,-0.00274306,0.00150275,-0.00044419,
 0.00181982,0.00125740,-0.00075322,0.00048200,-0.00003931,-0.00011679,-
 0.00021742,0.00016847,0.00002624,0.00008732,-0.00003078,-0.00013017,0.
 31672710,0.08093780,-0.08488264,-0.02009617,0.02767342,-0.00387085,-0.
 00741772,0.00050985,-0.00447602,0.00121447,-0.00027219,-0.00122628,0.0
 0011185,-0.00325398,-0.00295626,0.00185365,-0.01854654,0.01182248,0.00
 490151,-0.00283257,0.00054440,0.00041718,0.00147544,-0.00136133,-0.000
 33011,0.00129804,0.00070431,-0.00045672,0.00167870,-0.00050216,-0.0004
 6289,-0.00021550,-0.00030357,0.00005986,-0.08672936,0.08501221,0.06980
 078,-0.01963950,-0.06173238,-0.00111082,0.00093626,0.00551965,0.001939
 28,0.00126524,0.00803300,-0.00042757,0.00010895,-0.00082262,0.00223754
 ,0.00194953,0.00457408,0.00811795,-0.00296116,0.00286769,0.00000437,-0
 .00089318,-0.00360719,-0.00077572,-0.00026422,0.00002029,-0.00025516,-
 0.00005249,0.00016471,-0.00013006,-0.00000651,-0.00003292,-0.00011101,
 0.00000409,-0.00032080,-0.07818343,0.02035474,0.04990302,0.01018758,0.
 00678276,-0.00285230,-0.18681424,-0.13167326,0.05903395,-0.01463437,-0
 .02268986,0.00839860,-0.00419871,0.00273921,0.00245280,-0.00057829,0.0
 0140100,-0.00018903,0.00156411,0.00256827,0.00166038,0.00058192,0.0002
 8437,0.00000028,-0.00005390,-0.00007554,0.00002727,-0.00005574,0.00021
 332,-0.00007244,0.00209739,-0.00095629,-0.00151110,-0.00014625,0.00033
 818,-0.00016990,0.00015547,-0.00069428,-0.00141996,0.19237097,-0.02120
 358,-0.01510066,0.00828965,-0.13360914,-0.19437584,0.05671306,0.007168
 38,0.00872917,-0.00251291,0.00206225,0.00010547,-0.00013202,0.00082488
 ,-0.00034785,-0.00028826,0.00312977,-0.00406134,0.00029552,-0.00149456
 ,0.00030396,0.00049072,0.00035307,-0.00020554,-0.00008439,0.00005955,-
 0.00076954,0.00003860,-0.00050575,0.00063107,-0.00024662,-0.00000727,0
 .00011807,-0.00007131,0.00003948,0.00107239,-0.00061753,0.14296865,0.2
 0360061,0.00004370,-0.00016956,0.00307747,0.05923429,0.05612796,-0.060
 29808,0.00530889,0.00651193,0.00310499,0.00252281,-0.00033654,0.004126
 13,-0.00012942,-0.00046238,-0.00063711,0.00160233,0.00046523,0.0074041
 3,0.00018436,-0.00004701,0.00062938,-0.00001707,0.00004518,0.00001094,
 -0.00005653,-0.00000786,-0.00020449,-0.00155770,-0.00011046,-0.0027472
 1,-0.00013411,-0.00017568,-0.00053360,-0.00149590,-0.00039574,-0.00428
 690,-0.06534697,-0.06168274,0.05125841,0.00034288,-0.00099804,-0.00023
 337,-0.00100638,-0.00336940,0.00232669,-0.01489148,0.00859507,0.004705
 23,-0.30756018,0.07213021,0.07544542,-0.00295053,0.00084368,0.00144739
 ,0.00261840,0.00132950,0.00127486,0.00002657,-0.00053622,0.00033941,-0
 .00018949,0.00022334,-0.00010105,0.00005934,0.00020120,-0.00004847,0.0
 0014122,0.00072905,-0.00095192,-0.00056965,0.00180925,-0.00013658,-0.0
 0011660,0.00003027,-0.00019902,-0.00074991,0.00051323,0.00015091,0.323
 35678,-0.00055044,-0.00140063,0.00023156,-0.00281728,-0.00283390,0.001
 71782,-0.01895300,0.01266532,0.00479268,0.07332859,-0.07828078,-0.0175
 0807,0.02937808,-0.00424281,-0.00822106,0.00079122,-0.00524795,0.00105
 843,0.00130494,0.00101891,-0.00039986,0.00041034,-0.00084814,-0.000082
 60,-0.00022974,-0.00023381,0.00009030,0.00241020,0.00019683,-0.0010342
 1,-0.00114704,-0.00314185,0.00063055,0.00004975,0.00003864,-0.00009816
 ,-0.00109287,0.00037713,0.00028353,-0.08265550,0.08418135,-0.00027968,
 0.00036686,-0.00072428,0.00226954,0.00188468,0.00465656,0.00755567,-0.
 00353414,0.00169929,0.07532124,-0.01714603,-0.05426674,-0.00150533,0.0
 0040412,0.00253993,0.00133051,0.00089566,0.00679623,0.00014890,0.00015
 661,0.00090465,-0.00012042,-0.00002602,-0.00040825,-0.00000388,-0.0000
 3995,-0.00002683,-0.00112586,-0.00052596,-0.00236374,0.00016986,-0.000
 26324,-0.00042506,-0.00020104,-0.00009227,-0.00069435,0.00031710,-0.00
 020191,-0.00014988,-0.08194991,0.01875123,0.04677808,-0.00423301,0.003
 22691,0.00282889,-0.00012345,0.00087990,-0.00038397,0.00108334,0.00277
 200,0.00176415,0.00974883,0.00732020,-0.00218943,-0.19282273,-0.131869
 58,0.05950011,-0.01388554,-0.02105404,0.00771566,-0.00200289,-0.002887
 81,-0.00039354,0.00097645,0.00045265,-0.00014721,0.00120316,0.00056728
 ,-0.00034274,0.00040155,0.00045799,-0.00032070,0.00007183,-0.00008347,
 -0.00002099,-0.00070850,-0.00117433,0.00046349,-0.00003646,-0.00012787
 ,-0.00021021,0.00031813,-0.00056618,-0.00133702,0.19955381,0.00286609,
 0.00052884,-0.00027629,0.00089519,-0.00059186,-0.00032240,0.00272354,-
 0.00390102,0.00039468,-0.02035054,-0.01474915,0.00819621,-0.13394209,-
 0.18965461,0.05585652,0.00592467,0.01013887,-0.00238134,0.00020458,0.0
 0132245,-0.00064297,-0.00061554,-0.00001610,0.00025443,0.00126850,-0.0
 0361893,0.00001828,-0.00098681,-0.00137796,0.00038886,-0.00047717,0.00
 024814,0.00011580,0.00046550,0.00052615,-0.00015138,-0.00008030,-0.000
 02241,-0.00005368,0.00000477,0.00107449,-0.00055747,0.14185011,0.20004
 915,0.00286624,-0.00038534,0.00540415,-0.00038558,-0.00031777,-0.00094
 311,0.00176908,0.00038001,0.00729465,0.00067403,-0.00016771,0.00482529
 ,0.05971454,0.05522999,-0.06488698,0.00492387,0.00577341,0.00234691,-0
 .00071353,0.00029181,-0.00410791,-0.00003664,-0.00006849,0.00066260,-0
 .00041532,0.00023027,0.00036512,-0.00017113,-0.00004781,-0.00044602,0.
 00001974,-0.00000316,-0.00003185,0.00029381,0.00034428,0.00029847,-0.0
 0021513,-0.00003930,-0.00070661,-0.00139612,-0.00038493,-0.00383716,-0
 .06674541,-0.06075280,0.05376149,0.00068909,-0.00092229,0.00010505,-0.
 00030666,-0.00024442,0.00001528,-0.00017143,-0.00006179,0.00009092,0.0
 0025891,0.00024818,-0.00007373,-0.00047342,0.00036094,0.00002801,-0.00
 405401,-0.00238565,0.00272721,0.01975018,-0.03965587,-0.00065017,-0.00
 371180,0.00585494,-0.00122468,-0.11890102,0.19338201,0.01142581,-0.000
 05030,0.00019544,-0.00002662,0.00008839,-0.00002832,-0.00001034,-0.000
 01938,-0.00007073,0.00006521,0.00002314,-0.00008910,-0.00002966,-0.000
 00041,0.00001647,-0.00000015,0.00047808,0.00009175,-0.00019736,0.10641
 661,0.00058748,-0.00110496,0.00001134,-0.00077005,0.00020980,0.0001758
 9,0.00015512,-0.00055923,0.00002216,0.00027161,0.00036682,-0.00010971,
 -0.00032971,0.00073786,-0.00000331,-0.00422173,0.00086329,0.00161621,0
 .00512354,-0.04491612,0.00351505,0.00697860,0.00630236,-0.00335747,0.1
 4883506,-0.43015411,-0.00202914,-0.00026115,0.00077227,-0.00000837,0.0
 0026969,-0.00011442,-0.00006506,-0.00011622,-0.00012338,0.00006570,0.0
 0004867,-0.00005792,-0.00001963,-0.00002782,0.00000900,0.00000797,0.00
 021758,0.00005272,-0.00008606,-0.15668647,0.46771773,-0.00005117,0.000
 46770,0.00068793,0.00006965,0.00001701,-0.00036261,0.00006848,0.000087
 73,0.00007845,-0.00007614,-0.00010262,0.00013358,0.00009946,-0.0002120
 3,-0.00026530,0.00291714,0.00106152,0.00316020,-0.00528289,0.01704992,
 0.00385935,-0.00134109,-0.00301769,-0.00504201,0.01603468,-0.01549423,
 -0.01815585,0.00002062,-0.00014637,-0.00006255,-0.00004117,0.00002501,
 0.00005434,0.00006992,0.00005196,0.00014564,-0.00004391,0.00002201,-0.
 00009449,0.00000443,-0.00000542,0.00000395,-0.00021037,-0.00004802,-0.
 00007489,-0.01224713,0.00024284,0.01594713,-0.00051144,-0.00037791,0.0
 0019648,-0.00006743,0.00181864,-0.00009425,-0.00494429,-0.00061550,0.0
 0168572,-0.00099550,-0.00059616,0.00049373,0.00045305,0.00025295,-0.00
 009727,0.00014724,0.00012000,-0.00008060,0.00007248,-0.00021126,-0.000
 01290,-0.00002886,0.00005603,0.00000620,0.00004679,0.00008688,-0.00002
 264,-0.00963363,0.04437848,-0.00154856,-0.04749474,-0.02695543,0.00139
 783,-0.00001394,0.00012649,-0.00002366,-0.00001983,-0.00002958,0.00001
 491,0.00077120,-0.00031646,-0.00033286,-0.00002221,0.00006561,0.000012
 89,-0.00000132,-0.00000918,0.00000160,0.06050592,0.00019584,0.00003595
 ,-0.00006201,-0.00001174,-0.00057774,0.00008854,0.00116452,0.00254766,
 -0.00057097,-0.00016317,0.00000382,0.00009383,-0.00000161,0.00014476,0
 .00000809,0.00011331,-0.00024396,-0.00001712,-0.00008575,0.00041713,-0
 .00002165,0.00012916,-0.00018223,-0.00001907,-0.00005203,-0.00016160,0
 .00003262,0.00609146,-0.01323324,-0.00042520,-0.01296556,-0.32419981,0
 .03209635,-0.00000275,-0.00004369,0.00000029,0.00002792,-0.00000232,-0
 .00000617,0.00022904,0.00003474,-0.00011826,0.00000075,-0.00000783,0.0
 0000503,0.00000807,0.00002861,-0.00000532,0.00825859,0.35012225,0.0001
 3697,0.00011129,-0.00004396,0.00009500,-0.00046454,0.00026253,0.001502
 53,-0.00003409,-0.00002455,0.00044884,0.00022442,0.00027458,-0.0000710
 0,-0.00006878,0.00024629,-0.00007980,-0.00001911,-0.00005223,-0.000025
 87,0.00001629,-0.00003635,-0.00000137,0.00000304,0.00001093,-0.0000082
 7,-0.00000937,0.00000509,0.00241518,-0.01199482,0.00095791,-0.00005077
 ,0.03632424,-0.05585237,-0.00001028,-0.00003876,-0.00004177,0.00000899
 ,0.00001120,0.00001561,-0.00038922,0.00004660,-0.00032550,0.00001960,-
 0.00001458,0.00003849,-0.00000019,-0.00000010,0.00000089,-0.00479927,-
 0.03383954,0.05241241,-0.00016684,-0.00078822,-0.00016192,-0.00122350,
 0.00108729,-0.00040965,0.00183932,-0.00646109,0.00128692,0.00097850,0.
 00057955,-0.00068929,-0.00031782,0.00020751,-0.00014434,0.00034835,0.0
 0067898,-0.00013570,0.00019622,-0.00054746,0.00007629,-0.00018091,0.00
 019120,0.00001771,0.00007227,0.00020522,-0.00004956,-0.02308945,0.0012
 0752,0.03685779,-0.05748677,-0.01057969,0.03985638,0.00000328,0.000030
 04,0.00006454,0.00018615,-0.00000010,0.00014359,0.00010797,0.00026351,
 0.00018504,0.00000591,0.00003420,0.00000343,-0.00000690,-0.00003074,0.
 00000307,0.00067097,-0.00147670,0.00157307,0.07137624,0.00029177,0.000
 88244,-0.00002284,0.00084617,-0.00081482,0.00029294,-0.00058181,0.0035
 0692,-0.00187899,-0.00092306,0.00040213,0.00002307,0.00076627,-0.00080
 033,0.00038076,-0.00085356,0.00002181,0.00028237,-0.00003039,-0.000283
 88,-0.00009432,-0.00007805,0.00012345,0.00004043,0.00003445,0.00007047
 ,-0.00000668,0.00719086,0.00191876,-0.01422289,-0.01297893,-0.06814955
 ,0.06293945,-0.00001421,0.00000607,-0.00004549,-0.00008418,-0.00000209
 ,-0.00005304,-0.00003544,-0.00186617,-0.00145507,-0.00000503,-0.000010
 04,-0.00005305,-0.00000570,-0.00001429,0.00000515,-0.00545457,-0.00472
 653,0.03055238,0.00998536,0.06656653,-0.00009294,0.00032975,0.00003411
 ,0.00037264,-0.00072628,-0.00012779,-0.00051675,0.00350023,0.00023972,
 0.00095717,-0.00020890,-0.00020942,-0.00063128,0.00014901,0.00010938,0
 .00006620,-0.00044752,-0.00003522,-0.00011490,0.00044901,0.00000316,0.
 00008488,-0.00010348,-0.00001306,-0.00008758,-0.00014180,0.00004644,0.
 01192913,-0.00459682,-0.00306660,0.04520627,0.05859688,-0.28699503,0.0
 0000552,-0.00003061,-0.00000607,-0.00012585,0.00002801,-0.00001202,-0.
 00067925,-0.00019840,0.00019664,0.00002367,-0.00005170,0.00002214,0.00
 000321,0.00001688,-0.00000818,-0.00095076,0.00070104,-0.00134182,-0.05
 835006,-0.06340802,0.30874805,0.00004669,-0.00083684,0.00034853,-0.000
 98074,0.00145170,0.00067947,0.00139572,-0.00766545,-0.00045962,0.00050
 734,0.00063102,0.00007953,0.00013430,0.00017010,0.00011837,0.00026698,
 0.00079836,-0.00022881,0.00019265,-0.00069905,-0.00005116,-0.00018368,
 0.00021243,0.00005060,0.00011126,0.00024662,-0.00005021,-0.04029281,-0
 .00140537,-0.01334926,-0.16056993,-0.06743854,-0.10596130,-0.00003470,
 0.00002943,-0.00005676,0.00012099,-0.00005233,-0.00022821,0.00029213,0
 .00037540,-0.00044171,-0.00000630,0.00005795,-0.00000143,-0.00000777,-
 0.00003428,0.00000484,0.00106555,-0.00145936,-0.00076415,0.00668699,0.
 00193008,0.00290069,0.19125535,0.00022375,0.00081766,-0.00031502,0.000
 54947,-0.00082001,-0.00059130,0.00041460,0.00348832,0.00132372,-0.0010
 2967,0.00043870,0.00046794,0.00058971,-0.00092692,-0.00062642,-0.00088
 874,0.00006028,0.00022701,0.00005611,-0.00030585,0.00015226,-0.0000984
 9,0.00012409,-0.00001272,0.00004055,0.00008219,-0.00003094,0.01343431,
 0.00518176,0.00873852,-0.07278183,-0.09602131,-0.06802606,0.00001263,0
 .00001953,0.00004482,-0.00002577,0.00000764,0.00008667,0.00098381,-0.0
 0150034,0.00149321,0.00002294,0.00000912,0.00005165,-0.00000748,-0.000
 01602,0.00000086,-0.02059763,-0.00995598,-0.02080579,0.00541361,0.0031
 6914,0.00614272,0.07368812,0.09614801,0.00005809,-0.00002084,-0.000114
 45,0.00001519,0.00008260,-0.00036525,-0.00010040,0.00016195,0.00070311
 ,-0.00123939,-0.00025611,0.00022548,0.00050394,-0.00009888,-0.00021639
 ,-0.00009741,-0.00001611,0.00000783,0.00000844,-0.00000661,0.00002858,
 0.00004344,-0.00004417,-0.00001088,0.00002681,-0.00000971,-0.00000427,
 0.00942305,0.00540583,0.01087133,-0.11051016,-0.06602261,-0.15604031,0
 .00000857,0.00001151,0.00001846,0.00004720,-0.00001179,0.00004334,0.00
 039058,0.00033003,-0.00035355,-0.00001397,0.00002786,0.00001522,-0.000
 00066,0.00000480,-0.00000559,0.00415342,0.00205953,0.00349383,-0.02012
 733,-0.01327615,-0.01758443,0.11741058,0.07167888,0.15928795\\0.000064
 61,0.00003493,-0.00002310,0.00006214,-0.00003120,-0.00001569,-0.000207
 76,-0.00019119,0.00008431,0.00005252,0.00032741,-0.00005020,0.00016435
 ,-0.00025163,-0.00002336,-0.00010675,-0.00002929,0.00003730,-0.0001690
 3,0.00005628,0.00003830,0.00008369,-0.00002647,-0.00001984,0.00002119,
 0.00004782,-0.00000935,0.00000415,0.00008400,-0.00001165,0.00004725,-0
 .00005451,-0.00000825,-0.00000766,0.00002205,0.00000008,0.00000088,-0.
 00001778,0.00000157,0.00000177,-0.00003189,0.00000267,-0.00001851,0.00
 004651,0.00000080,0.00000668,-0.00002986,0.00000112,-0.00002000,0.0000
 1058,0.00000518,0.00000766,0.00001589,-0.00001377,0.00001282,0.0000183
 7,0.00000390\\\@
 The archive entry for this job was punched.


 CHARLIE BROWN -- WHICH DO YOU THINK LASTS LONGER IN LIFE, THE GOOD THINGS 
                  OR THE BAD THINGS?
 LINUS --         GOOD THINGS LAST EIGHT SECONDS ..
                  BAD THINGS LAST THREE WEEKS
 CHARLIE BROWN -- WHAT ABOUT IN BETWEEN?
 SNOOPY --        IN BETWEEN YOU SHOULD TAKE A NAP ...
 Job cpu time:       0 days 15 hours 57 minutes 34.9 seconds.
 Elapsed time:       0 days  0 hours 47 minutes 53.1 seconds.
 File lengths (MBytes):  RWF=    588 Int=      0 D2E=      0 Chk=     43 Scr=      1
 Normal termination of Gaussian 16 at Wed Apr  2 14:21:49 2025.
